 Entering Gaussian System, Link 0=g16
 Initial command:
 /project/chenjingdan/g16/l1.exe "/scratch/chenjingdan/scratch/Gau-25066.inp" -scrdir="/scratch/chenjingdan/scratch/"
 Entering Link 1 = /project/chenjingdan/g16/l1.exe PID=     25068.
  
 Copyright (c) 1988-2019, Gaussian, Inc.  All Rights Reserved.
  
 This is part of the Gaussian(R) 16 program.  It is based on
 the Gaussian(R) 09 system (copyright 2009, Gaussian, Inc.),
 the Gaussian(R) 03 system (copyright 2003, Gaussian, Inc.),
 the Gaussian(R) 98 system (copyright 1998, Gaussian, Inc.),
 the Gaussian(R) 94 system (copyright 1995, Gaussian, Inc.),
 the Gaussian 92(TM) system (copyright 1992, Gaussian, Inc.),
 the Gaussian 90(TM) system (copyright 1990, Gaussian, Inc.),
 the Gaussian 88(TM) system (copyright 1988, Gaussian, Inc.),
 the Gaussian 86(TM) system (copyright 1986, Carnegie Mellon
 University), and the Gaussian 82(TM) system (copyright 1983,
 Carnegie Mellon University). Gaussian is a federally registered
 trademark of Gaussian, Inc.
  
 This software contains proprietary and confidential information,
 including trade secrets, belonging to Gaussian, Inc.
  
 This software is provided under written license and may be
 used, copied, transmitted, or stored only in accord with that
 written license.
  
 The following legend is applicable only to US Government
 contracts under FAR:
  
                    RESTRICTED RIGHTS LEGEND
  
 Use, reproduction and disclosure by the US Government is
 subject to restrictions as set forth in subparagraphs (a)
 and (c) of the Commercial Computer Software - Restricted
 Rights clause in FAR 52.227-19.
  
 Gaussian, Inc.
 340 Quinnipiac St., Bldg. 40, Wallingford CT 06492
  
  
 ---------------------------------------------------------------
 Warning -- This program may not be used in any manner that
 competes with the business of Gaussian, Inc. or will provide
 assistance to any competitor of Gaussian, Inc.  The licensee
 of this program is prohibited from giving any competitor of
 Gaussian, Inc. access to this program.  By using this program,
 the user acknowledges that Gaussian, Inc. is engaged in the
 business of creating and licensing software in the field of
 computational chemistry and represents and warrants to the
 licensee that it is not a competitor of Gaussian, Inc. and that
 it will not use this program in any manner prohibited above.
 ---------------------------------------------------------------
  

 Cite this work as:
 Gaussian 16, Revision C.01,
 M. J. Frisch, G. W. Trucks, H. B. Schlegel, G. E. Scuseria, 
 M. A. Robb, J. R. Cheeseman, G. Scalmani, V. Barone, 
 G. A. Petersson, H. Nakatsuji, X. Li, M. Caricato, A. V. Marenich, 
 J. Bloino, B. G. Janesko, R. Gomperts, B. Mennucci, H. P. Hratchian, 
 J. V. Ortiz, A. F. Izmaylov, J. L. Sonnenberg, D. Williams-Young, 
 F. Ding, F. Lipparini, F. Egidi, J. Goings, B. Peng, A. Petrone, 
 T. Henderson, D. Ranasinghe, V. G. Zakrzewski, J. Gao, N. Rega, 
 G. Zheng, W. Liang, M. Hada, M. Ehara, K. Toyota, R. Fukuda, 
 J. Hasegawa, M. Ishida, T. Nakajima, Y. Honda, O. Kitao, H. Nakai, 
 T. Vreven, K. Throssell, J. A. Montgomery, Jr., J. E. Peralta, 
 F. Ogliaro, M. J. Bearpark, J. J. Heyd, E. N. Brothers, K. N. Kudin, 
 V. N. Staroverov, T. A. Keith, R. Kobayashi, J. Normand, 
 K. Raghavachari, A. P. Rendell, J. C. Burant, S. S. Iyengar, 
 J. Tomasi, M. Cossi, J. M. Millam, M. Klene, C. Adamo, R. Cammi, 
 J. W. Ochterski, R. L. Martin, K. Morokuma, O. Farkas, 
 J. B. Foresman, and D. J. Fox, Gaussian, Inc., Wallingford CT, 2019.
 
 ******************************************
 Gaussian 16:  ES64L-G16RevC.01  3-Jul-2019
                15-Nov-2022 
 ******************************************
 %nprocshared=16
 Will use up to   16 processors via shared memory.
 %mem=60GB
 %chk=N2_ts2_invR_irc.chk
 ------------------------------------------------------------
 #p irc=(calcfc,maxpoints=30,lqa,stepsize=8) 6-31g(d,p) m062x
 ------------------------------------------------------------
 1/10=4,18=10,26=3,38=1,39=8,42=30,44=3,45=2,172=1/1,23;
 2/12=2,17=6,18=5,29=1,40=1/2;
 3/5=1,6=6,7=101,11=2,25=1,30=1,71=2,74=-55,140=1/1,2,3;
 4//1;
 5/5=2,38=5/2;
 8/6=4,10=90,11=11/1;
 11/6=1,8=1,9=11,15=111,16=1/1,2,10;
 10/6=1,13=1/2;
 6/7=2,8=2,9=2,10=2,28=1/1;
 7/10=1,25=1/1,2,3,16;
 1/10=4,18=10,26=3,39=8,42=30,44=3,45=2/23(2);
 2/29=1/2;
 99/5=20/99;
 2/29=1/2;
 3/5=1,6=6,7=101,11=2,25=1,30=1,71=2,74=-55,140=1/1,2,3;
 4/5=5,16=3,69=1/1;
 5/5=2,38=5/2;
 8/6=4,10=90,11=11/1;
 11/6=1,8=1,9=11,15=111,16=1/1,2,10;
 10/6=1,13=1/2;
 7/10=1,25=1/1,2,3,16;
 1/18=10,26=3,39=8,42=30,44=3,45=2/23(-8);
 2/29=1/2;
 6/7=2,8=2,9=2,10=2,19=2,28=1/1;
 99/5=20,9=1/99;
 Leave Link    1 at Tue Nov 15 20:24:18 2022, MaxMem=  8053063680 cpu:               7.6 elap:               0.5
 (Enter /project/chenjingdan/g16/l101.exe)
 -----
 TITLE
 -----
 Symbolic Z-matrix:
 Charge =  0 Multiplicity = 1
 O                     0.7791    5.23873  -1.99188 
 N                    -1.32976   2.77264  -0.34236 
 O                    -1.30175   4.617    -2.4871 
 O                    -3.06924   4.13671  -0.9034 
 C                     0.53809   4.06758   0.61914 
 N                    -6.28111  -0.81689   1.616 
 C                    -5.31347   0.20985   1.21089 
 C                    -0.3014    4.49613  -1.73793 
 C                    -3.56796   2.10192   0.23067 
 C                    -0.16754   3.59147  -0.64422 
 C                    -2.60565   3.05838  -0.37059 
 C                    -3.08685   1.05291   1.01169 
 C                    -5.80643   1.30458   0.51264 
 C                    -4.93316   2.25361  -0.00393 
 C                    -3.94321   0.06223   1.48245 
 O                    -7.40005  -0.43221   1.90548 
 O                    -5.91337  -1.97363   1.59809 
 H                     0.56417   5.78551  -2.76212 
 H                    -1.07091   1.80443  -0.088 
 H                    -2.36487   4.44437  -1.6652 
 H                     1.43553   4.62249   0.34308 
 H                    -0.10575   4.70951   1.23187 
 H                     0.86252   3.21508   1.2246 
 H                    -2.03316   0.97459   1.23669 
 H                    -5.29146   3.08749  -0.59517 
 O                     1.63466   1.73714  -0.93009 
 O                     1.29907  -0.49617  -1.88536 
 C                    -4.31894   1.95109  -3.3731 
 O                     2.14864  -0.35409   0.50086 
 C                     0.11187  -0.12098  -4.42971 
 C                     2.64139   4.88046   4.24105 
 O                    -0.24275   0.26645   0.0893 
 C                     4.33209   3.44988  -0.26752 
 C                     3.32527  -0.02114   3.31799 
 C                    -2.98945  -2.22109  -0.92577 
 C                    -3.54999  -0.1492   -2.18961 
 C                     1.85588  -2.78369  -1.50261 
 C                     0.20522  -4.51735  -1.83519 
 C                    -2.09291   0.8451   -3.79613 
 C                    -3.30424   0.86749  -3.10912 
 C                     3.98559  -1.39179  -0.6486 
 C                    -1.38968  -1.15026  -2.62179 
 C                     0.92785  -1.83354  -1.89744 
 C                     3.33199  -2.65949  -1.17506 
 C                    -1.13787  -0.14914  -3.5824 
 C                     4.19904  -2.9109   -2.44277 
 C                    -2.62088  -1.15674  -1.93188 
 C                     1.46363  -4.12133  -1.40457 
 C                    -0.68293  -3.55348  -2.30548 
 C                     4.33077   0.64724   0.63682 
 C                     3.49875  -0.37412   0.16093 
 C                     5.61207  -2.45971  -2.03856 
 C                    -0.36843  -2.18857  -2.29908 
 C                     6.17237  -0.34366  -0.61396 
 C                     3.83522   1.72531   1.54095 
 C                     5.32066  -1.34134  -1.0659 
 C                     3.00042   2.43923   3.69121 
 C                     5.67496   0.62755   0.24966 
 C                     3.38073   1.40598   2.83293 
 C                     3.5373    4.06957   2.02882 
 C                     3.90267   3.06935   1.12916 
 C                     3.07546   3.77684   3.31078 
 C                     3.48856  -3.85234  -0.19026 
 C                     2.5596   -4.94135  -0.76245 
 P                     1.11711   0.34595  -0.52322 
 H                     0.85133   2.584    -0.97974 
 H                    -4.45963   2.10163  -4.44704 
 H                    -5.28777   1.69783  -2.93522 
 H                    -3.99695   2.90998  -2.95178 
 H                    -0.13863   0.17963  -5.4503 
 H                     0.5983   -1.09774  -4.47019 
 H                     0.83951   0.5914   -4.03165 
 H                     3.34104   5.72009   4.21252 
 H                     1.65674   5.26605   3.95524 
 H                     2.57337   4.527     5.27234 
 H                     3.92977   2.74777  -1.00069 
 H                     3.96836   4.45112  -0.51446 
 H                     5.42195   3.45962  -0.37194 
 H                     3.19974  -0.05243   4.40245 
 H                     4.24236  -0.56017   3.06307 
 H                     2.49146  -0.56143   2.86102 
 H                    -3.74351  -1.86043  -0.22125 
 H                    -3.42804  -3.09687  -1.41618 
 H                    -2.12364  -2.57889  -0.36749 
 H                    -4.49592  -0.16198  -1.64974 
 H                    -0.09456  -5.55996  -1.79042 
 H                    -1.88855   1.61543  -4.53763 
 H                     3.82385  -2.27177  -3.2491 
 H                     4.14669  -3.9496   -2.78 
 H                    -1.66691  -3.85351  -2.64987 
 H                     6.21294  -2.12602  -2.88875 
 H                     6.16543  -3.27066  -1.5492 
 H                     7.20962  -0.31494  -0.9339 
 H                     2.65334   2.18933   4.69154 
 H                     6.32895   1.40746   0.62825 
 H                     3.5953    5.10908   1.70971 
 H                     4.52907  -4.17186  -0.08454 
 H                     3.1241   -3.53654   0.79362 
 H                     2.17011  -5.61142   0.00889 
 H                     3.07841  -5.56441  -1.50081 
 H                    -6.87732   1.37303   0.36258 
 O                    -3.50622  -0.99617   2.19008 
 C                    -2.10604  -1.21077   2.19461 
 H                    -1.66711  -1.0428    1.20501 
 H                    -1.60443  -0.55941   2.91959 
 C                    -1.8708   -2.65011   2.59876 
 C                    -0.40379  -3.05036   2.38779 
 F                    -2.16319  -2.84751   3.90198 
 F                    -2.62677  -3.48992   1.86574 
 F                    -0.08135  -2.96461   1.09524 
 F                     0.39082  -2.2263    3.07767 
 F                    -0.19232  -4.29483   2.79993 
 
 ITRead=  0  0  0  0  0  0  0  0  0  0  0  0  0  0  0  0  0  0  0  0
 ITRead=  0  0  0  0  0  0  0  0  0  0  0  0  0  0  0  0  0  0  0  0
 ITRead=  0  0  0  0  0  0  0  0  0  0  0  0  0  0  0  0  0  0  0  0
 ITRead=  0  0  0  0  0  0  0  0  0  0  0  0  0  0  0  0  0  0  0  0
 ITRead=  0  0  0  0  0  0  0  0  0  0  0  0  0  0  0  0  0  0  0  0
 ITRead=  0  0  0  0  0  0  0  0  0  0  0  0
 MicOpt= -1 -1 -1 -1 -1 -1 -1 -1 -1 -1 -1 -1 -1 -1 -1 -1 -1 -1 -1 -1
 MicOpt= -1 -1 -1 -1 -1 -1 -1 -1 -1 -1 -1 -1 -1 -1 -1 -1 -1 -1 -1 -1
 MicOpt= -1 -1 -1 -1 -1 -1 -1 -1 -1 -1 -1 -1 -1 -1 -1 -1 -1 -1 -1 -1
 MicOpt= -1 -1 -1 -1 -1 -1 -1 -1 -1 -1 -1 -1 -1 -1 -1 -1 -1 -1 -1 -1
 MicOpt= -1 -1 -1 -1 -1 -1 -1 -1 -1 -1 -1 -1 -1 -1 -1 -1 -1 -1 -1 -1
 MicOpt= -1 -1 -1 -1 -1 -1 -1 -1 -1 -1 -1 -1
 NAtoms=    112 NQM=      112 NQMF=       0 NMMI=      0 NMMIF=      0
                NMic=       0 NMicF=      0.
                    Isotopes and Nuclear Properties:
 (Nuclear quadrupole moments (NQMom) in fm**2, nuclear magnetic moments (NMagM)
  in nuclear magnetons)

  Atom         1           2           3           4           5           6           7           8           9          10
 IAtWgt=          16          14          16          16          12          14          12          12          12          12
 AtmWgt=  15.9949146  14.0030740  15.9949146  15.9949146  12.0000000  14.0030740  12.0000000  12.0000000  12.0000000  12.0000000
 NucSpn=           0           2           0           0           0           2           0           0           0           0
 AtZEff=  -0.0000000  -0.0000000  -0.0000000  -0.0000000  -0.0000000  -0.0000000  -0.0000000  -0.0000000  -0.0000000  -0.0000000
 NQMom=    0.0000000   2.0440000   0.0000000   0.0000000   0.0000000   2.0440000   0.0000000   0.0000000   0.0000000   0.0000000
 NMagM=    0.0000000   0.4037610   0.0000000   0.0000000   0.0000000   0.4037610   0.0000000   0.0000000   0.0000000   0.0000000
 AtZNuc=   8.0000000   7.0000000   8.0000000   8.0000000   6.0000000   7.0000000   6.0000000   6.0000000   6.0000000   6.0000000

  Atom        11          12          13          14          15          16          17          18          19          20
 IAtWgt=          12          12          12          12          12          16          16           1           1           1
 AtmWgt=  12.0000000  12.0000000  12.0000000  12.0000000  12.0000000  15.9949146  15.9949146   1.0078250   1.0078250   1.0078250
 NucSpn=           0           0           0           0           0           0           0           1           1           1
 AtZEff=  -0.0000000  -0.0000000  -0.0000000  -0.0000000  -0.0000000  -0.0000000  -0.0000000  -0.0000000  -0.0000000  -0.0000000
 NQMom=    0.0000000   0.0000000   0.0000000   0.0000000   0.0000000   0.0000000   0.0000000   0.0000000   0.0000000   0.0000000
 NMagM=    0.0000000   0.0000000   0.0000000   0.0000000   0.0000000   0.0000000   0.0000000   2.7928460   2.7928460   2.7928460
 AtZNuc=   6.0000000   6.0000000   6.0000000   6.0000000   6.0000000   8.0000000   8.0000000   1.0000000   1.0000000   1.0000000

  Atom        21          22          23          24          25          26          27          28          29          30
 IAtWgt=           1           1           1           1           1          16          16          12          16          12
 AtmWgt=   1.0078250   1.0078250   1.0078250   1.0078250   1.0078250  15.9949146  15.9949146  12.0000000  15.9949146  12.0000000
 NucSpn=           1           1           1           1           1           0           0           0           0           0
 AtZEff=  -0.0000000  -0.0000000  -0.0000000  -0.0000000  -0.0000000  -0.0000000  -0.0000000  -0.0000000  -0.0000000  -0.0000000
 NQMom=    0.0000000   0.0000000   0.0000000   0.0000000   0.0000000   0.0000000   0.0000000   0.0000000   0.0000000   0.0000000
 NMagM=    2.7928460   2.7928460   2.7928460   2.7928460   2.7928460   0.0000000   0.0000000   0.0000000   0.0000000   0.0000000
 AtZNuc=   1.0000000   1.0000000   1.0000000   1.0000000   1.0000000   8.0000000   8.0000000   6.0000000   8.0000000   6.0000000

  Atom        31          32          33          34          35          36          37          38          39          40
 IAtWgt=          12          16          12          12          12          12          12          12          12          12
 AtmWgt=  12.0000000  15.9949146  12.0000000  12.0000000  12.0000000  12.0000000  12.0000000  12.0000000  12.0000000  12.0000000
 NucSpn=           0           0           0           0           0           0           0           0           0           0
 AtZEff=  -0.0000000  -0.0000000  -0.0000000  -0.0000000  -0.0000000  -0.0000000  -0.0000000  -0.0000000  -0.0000000  -0.0000000
 NQMom=    0.0000000   0.0000000   0.0000000   0.0000000   0.0000000   0.0000000   0.0000000   0.0000000   0.0000000   0.0000000
 NMagM=    0.0000000   0.0000000   0.0000000   0.0000000   0.0000000   0.0000000   0.0000000   0.0000000   0.0000000   0.0000000
 AtZNuc=   6.0000000   8.0000000   6.0000000   6.0000000   6.0000000   6.0000000   6.0000000   6.0000000   6.0000000   6.0000000

  Atom        41          42          43          44          45          46          47          48          49          50
 IAtWgt=          12          12          12          12          12          12          12          12          12          12
 AtmWgt=  12.0000000  12.0000000  12.0000000  12.0000000  12.0000000  12.0000000  12.0000000  12.0000000  12.0000000  12.0000000
 NucSpn=           0           0           0           0           0           0           0           0           0           0
 AtZEff=  -0.0000000  -0.0000000  -0.0000000  -0.0000000  -0.0000000  -0.0000000  -0.0000000  -0.0000000  -0.0000000  -0.0000000
 NQMom=    0.0000000   0.0000000   0.0000000   0.0000000   0.0000000   0.0000000   0.0000000   0.0000000   0.0000000   0.0000000
 NMagM=    0.0000000   0.0000000   0.0000000   0.0000000   0.0000000   0.0000000   0.0000000   0.0000000   0.0000000   0.0000000
 AtZNuc=   6.0000000   6.0000000   6.0000000   6.0000000   6.0000000   6.0000000   6.0000000   6.0000000   6.0000000   6.0000000

  Atom        51          52          53          54          55          56          57          58          59          60
 IAtWgt=          12          12          12          12          12          12          12          12          12          12
 AtmWgt=  12.0000000  12.0000000  12.0000000  12.0000000  12.0000000  12.0000000  12.0000000  12.0000000  12.0000000  12.0000000
 NucSpn=           0           0           0           0           0           0           0           0           0           0
 AtZEff=  -0.0000000  -0.0000000  -0.0000000  -0.0000000  -0.0000000  -0.0000000  -0.0000000  -0.0000000  -0.0000000  -0.0000000
 NQMom=    0.0000000   0.0000000   0.0000000   0.0000000   0.0000000   0.0000000   0.0000000   0.0000000   0.0000000   0.0000000
 NMagM=    0.0000000   0.0000000   0.0000000   0.0000000   0.0000000   0.0000000   0.0000000   0.0000000   0.0000000   0.0000000
 AtZNuc=   6.0000000   6.0000000   6.0000000   6.0000000   6.0000000   6.0000000   6.0000000   6.0000000   6.0000000   6.0000000

  Atom        61          62          63          64          65          66          67          68          69          70
 IAtWgt=          12          12          12          12          31           1           1           1           1           1
 AtmWgt=  12.0000000  12.0000000  12.0000000  12.0000000  30.9737634   1.0078250   1.0078250   1.0078250   1.0078250   1.0078250
 NucSpn=           0           0           0           0           1           1           1           1           1           1
 AtZEff=  -0.0000000  -0.0000000  -0.0000000  -0.0000000  -0.0000000  -0.0000000  -0.0000000  -0.0000000  -0.0000000  -0.0000000
 NQMom=    0.0000000   0.0000000   0.0000000   0.0000000   0.0000000   0.0000000   0.0000000   0.0000000   0.0000000   0.0000000
 NMagM=    0.0000000   0.0000000   0.0000000   0.0000000   1.1316000   2.7928460   2.7928460   2.7928460   2.7928460   2.7928460
 AtZNuc=   6.0000000   6.0000000   6.0000000   6.0000000  15.0000000   1.0000000   1.0000000   1.0000000   1.0000000   1.0000000

  Atom        71          72          73          74          75          76          77          78          79          80
 IAtWgt=           1           1           1           1           1           1           1           1           1           1
 AtmWgt=   1.0078250   1.0078250   1.0078250   1.0078250   1.0078250   1.0078250   1.0078250   1.0078250   1.0078250   1.0078250
 NucSpn=           1           1           1           1           1           1           1           1           1           1
 AtZEff=  -0.0000000  -0.0000000  -0.0000000  -0.0000000  -0.0000000  -0.0000000  -0.0000000  -0.0000000  -0.0000000  -0.0000000
 NQMom=    0.0000000   0.0000000   0.0000000   0.0000000   0.0000000   0.0000000   0.0000000   0.0000000   0.0000000   0.0000000
 NMagM=    2.7928460   2.7928460   2.7928460   2.7928460   2.7928460   2.7928460   2.7928460   2.7928460   2.7928460   2.7928460
 AtZNuc=   1.0000000   1.0000000   1.0000000   1.0000000   1.0000000   1.0000000   1.0000000   1.0000000   1.0000000   1.0000000

  Atom        81          82          83          84          85          86          87          88          89          90
 IAtWgt=           1           1           1           1           1           1           1           1           1           1
 AtmWgt=   1.0078250   1.0078250   1.0078250   1.0078250   1.0078250   1.0078250   1.0078250   1.0078250   1.0078250   1.0078250
 NucSpn=           1           1           1           1           1           1           1           1           1           1
 AtZEff=  -0.0000000  -0.0000000  -0.0000000  -0.0000000  -0.0000000  -0.0000000  -0.0000000  -0.0000000  -0.0000000  -0.0000000
 NQMom=    0.0000000   0.0000000   0.0000000   0.0000000   0.0000000   0.0000000   0.0000000   0.0000000   0.0000000   0.0000000
 NMagM=    2.7928460   2.7928460   2.7928460   2.7928460   2.7928460   2.7928460   2.7928460   2.7928460   2.7928460   2.7928460
 AtZNuc=   1.0000000   1.0000000   1.0000000   1.0000000   1.0000000   1.0000000   1.0000000   1.0000000   1.0000000   1.0000000

  Atom        91          92          93          94          95          96          97          98          99         100
 IAtWgt=           1           1           1           1           1           1           1           1           1           1
 AtmWgt=   1.0078250   1.0078250   1.0078250   1.0078250   1.0078250   1.0078250   1.0078250   1.0078250   1.0078250   1.0078250
 NucSpn=           1           1           1           1           1           1           1           1           1           1
 AtZEff=  -0.0000000  -0.0000000  -0.0000000  -0.0000000  -0.0000000  -0.0000000  -0.0000000  -0.0000000  -0.0000000  -0.0000000
 NQMom=    0.0000000   0.0000000   0.0000000   0.0000000   0.0000000   0.0000000   0.0000000   0.0000000   0.0000000   0.0000000
 NMagM=    2.7928460   2.7928460   2.7928460   2.7928460   2.7928460   2.7928460   2.7928460   2.7928460   2.7928460   2.7928460
 AtZNuc=   1.0000000   1.0000000   1.0000000   1.0000000   1.0000000   1.0000000   1.0000000   1.0000000   1.0000000   1.0000000

  Atom       101         102         103         104         105         106         107         108         109         110
 IAtWgt=           1          16          12           1           1          12          12          19          19          19
 AtmWgt=   1.0078250  15.9949146  12.0000000   1.0078250   1.0078250  12.0000000  12.0000000  18.9984032  18.9984032  18.9984032
 NucSpn=           1           0           0           1           1           0           0           1           1           1
 AtZEff=  -0.0000000  -0.0000000  -0.0000000  -0.0000000  -0.0000000  -0.0000000  -0.0000000  -0.0000000  -0.0000000  -0.0000000
 NQMom=    0.0000000   0.0000000   0.0000000   0.0000000   0.0000000   0.0000000   0.0000000   0.0000000   0.0000000   0.0000000
 NMagM=    2.7928460   0.0000000   0.0000000   2.7928460   2.7928460   0.0000000   0.0000000   2.6288670   2.6288670   2.6288670
 AtZNuc=   1.0000000   8.0000000   6.0000000   1.0000000   1.0000000   6.0000000   6.0000000   9.0000000   9.0000000   9.0000000

  Atom       111         112
 IAtWgt=          19          19
 AtmWgt=  18.9984032  18.9984032
 NucSpn=           1           1
 AtZEff=  -0.0000000  -0.0000000
 NQMom=    0.0000000   0.0000000
 NMagM=    2.6288670   2.6288670
 AtZNuc=   9.0000000   9.0000000
 Leave Link  101 at Tue Nov 15 20:24:19 2022, MaxMem=  8053063680 cpu:               4.1 elap:               0.4
 (Enter /project/chenjingdan/g16/l123.exe)
 IRC-IRC-IRC-IRC-IRC-IRC-IRC-IRC-IRC-IRC-IRC-IRC-IRC-IRC-IRC-IRC-IRC-IRC
 ------------------------------------------------------------------------
 INPUT DATA FOR L123
 ------------------------------------------------------------------------
 GENERAL PARAMETERS:
 Follow reaction path in both directions.
 Maximum points per path      =  30
 Step size                    =   0.080 bohr
 Integration scheme           = LQA                                 
 Initial Hessian              = CalcFC
 Hessian evaluation           = All updating
 Hessian updating method      = Bofill                              
 ------------------------------------------------------------------------
 IRC-IRC-IRC-IRC-IRC-IRC-IRC-IRC-IRC-IRC-IRC-IRC-IRC-IRC-IRC-IRC-IRC-IRC
 Leave Link  123 at Tue Nov 15 20:24:19 2022, MaxMem=  8053063680 cpu:               0.2 elap:               0.1
 (Enter /project/chenjingdan/g16/l202.exe)
 Symmetry turned off by external request.
 Stoichiometry    C48H46F5N2O10P
 Framework group  C1[X(C48H46F5N2O10P)]
 Deg. of freedom   330
 Full point group                 C1      NOp   1
                          Input orientation:                          
 ---------------------------------------------------------------------
 Center     Atomic      Atomic             Coordinates (Angstroms)
 Number     Number       Type             X           Y           Z
 ---------------------------------------------------------------------
      1          8           0        0.779100    5.238730   -1.991880
      2          7           0       -1.329760    2.772640   -0.342360
      3          8           0       -1.301750    4.617000   -2.487100
      4          8           0       -3.069240    4.136710   -0.903400
      5          6           0        0.538090    4.067580    0.619140
      6          7           0       -6.281110   -0.816890    1.616000
      7          6           0       -5.313470    0.209850    1.210890
      8          6           0       -0.301400    4.496130   -1.737930
      9          6           0       -3.567960    2.101920    0.230670
     10          6           0       -0.167540    3.591470   -0.644220
     11          6           0       -2.605650    3.058380   -0.370590
     12          6           0       -3.086850    1.052910    1.011690
     13          6           0       -5.806430    1.304580    0.512640
     14          6           0       -4.933160    2.253610   -0.003930
     15          6           0       -3.943210    0.062230    1.482450
     16          8           0       -7.400050   -0.432210    1.905480
     17          8           0       -5.913370   -1.973630    1.598090
     18          1           0        0.564170    5.785510   -2.762120
     19          1           0       -1.070910    1.804430   -0.088000
     20          1           0       -2.364870    4.444370   -1.665200
     21          1           0        1.435530    4.622490    0.343080
     22          1           0       -0.105750    4.709510    1.231870
     23          1           0        0.862520    3.215080    1.224600
     24          1           0       -2.033160    0.974590    1.236690
     25          1           0       -5.291460    3.087490   -0.595170
     26          8           0        1.634660    1.737140   -0.930090
     27          8           0        1.299070   -0.496170   -1.885360
     28          6           0       -4.318940    1.951090   -3.373100
     29          8           0        2.148640   -0.354090    0.500860
     30          6           0        0.111870   -0.120980   -4.429710
     31          6           0        2.641390    4.880460    4.241050
     32          8           0       -0.242750    0.266450    0.089300
     33          6           0        4.332090    3.449880   -0.267520
     34          6           0        3.325270   -0.021140    3.317990
     35          6           0       -2.989450   -2.221090   -0.925770
     36          6           0       -3.549990   -0.149200   -2.189610
     37          6           0        1.855880   -2.783690   -1.502610
     38          6           0        0.205220   -4.517350   -1.835190
     39          6           0       -2.092910    0.845100   -3.796130
     40          6           0       -3.304240    0.867490   -3.109120
     41          6           0        3.985590   -1.391790   -0.648600
     42          6           0       -1.389680   -1.150260   -2.621790
     43          6           0        0.927850   -1.833540   -1.897440
     44          6           0        3.331990   -2.659490   -1.175060
     45          6           0       -1.137870   -0.149140   -3.582400
     46          6           0        4.199040   -2.910900   -2.442770
     47          6           0       -2.620880   -1.156740   -1.931880
     48          6           0        1.463630   -4.121330   -1.404570
     49          6           0       -0.682930   -3.553480   -2.305480
     50          6           0        4.330770    0.647240    0.636820
     51          6           0        3.498750   -0.374120    0.160930
     52          6           0        5.612070   -2.459710   -2.038560
     53          6           0       -0.368430   -2.188570   -2.299080
     54          6           0        6.172370   -0.343660   -0.613960
     55          6           0        3.835220    1.725310    1.540950
     56          6           0        5.320660   -1.341340   -1.065900
     57          6           0        3.000420    2.439230    3.691210
     58          6           0        5.674960    0.627550    0.249660
     59          6           0        3.380730    1.405980    2.832930
     60          6           0        3.537300    4.069570    2.028820
     61          6           0        3.902670    3.069350    1.129160
     62          6           0        3.075460    3.776840    3.310780
     63          6           0        3.488560   -3.852340   -0.190260
     64          6           0        2.559600   -4.941350   -0.762450
     65         15           0        1.117110    0.345950   -0.523220
     66          1           0        0.851330    2.584000   -0.979740
     67          1           0       -4.459630    2.101630   -4.447040
     68          1           0       -5.287770    1.697830   -2.935220
     69          1           0       -3.996950    2.909980   -2.951780
     70          1           0       -0.138630    0.179630   -5.450300
     71          1           0        0.598300   -1.097740   -4.470190
     72          1           0        0.839510    0.591400   -4.031650
     73          1           0        3.341040    5.720090    4.212520
     74          1           0        1.656740    5.266050    3.955240
     75          1           0        2.573370    4.527000    5.272340
     76          1           0        3.929770    2.747770   -1.000690
     77          1           0        3.968360    4.451120   -0.514460
     78          1           0        5.421950    3.459620   -0.371940
     79          1           0        3.199740   -0.052430    4.402450
     80          1           0        4.242360   -0.560170    3.063070
     81          1           0        2.491460   -0.561430    2.861020
     82          1           0       -3.743510   -1.860430   -0.221250
     83          1           0       -3.428040   -3.096870   -1.416180
     84          1           0       -2.123640   -2.578890   -0.367490
     85          1           0       -4.495920   -0.161980   -1.649740
     86          1           0       -0.094560   -5.559960   -1.790420
     87          1           0       -1.888550    1.615430   -4.537630
     88          1           0        3.823850   -2.271770   -3.249100
     89          1           0        4.146690   -3.949600   -2.780000
     90          1           0       -1.666910   -3.853510   -2.649870
     91          1           0        6.212940   -2.126020   -2.888750
     92          1           0        6.165430   -3.270660   -1.549200
     93          1           0        7.209620   -0.314940   -0.933900
     94          1           0        2.653340    2.189330    4.691540
     95          1           0        6.328950    1.407460    0.628250
     96          1           0        3.595300    5.109080    1.709710
     97          1           0        4.529070   -4.171860   -0.084540
     98          1           0        3.124100   -3.536540    0.793620
     99          1           0        2.170110   -5.611420    0.008890
    100          1           0        3.078410   -5.564410   -1.500810
    101          1           0       -6.877320    1.373030    0.362580
    102          8           0       -3.506220   -0.996170    2.190080
    103          6           0       -2.106040   -1.210770    2.194610
    104          1           0       -1.667110   -1.042800    1.205010
    105          1           0       -1.604430   -0.559410    2.919590
    106          6           0       -1.870800   -2.650110    2.598760
    107          6           0       -0.403790   -3.050360    2.387790
    108          9           0       -2.163190   -2.847510    3.901980
    109          9           0       -2.626770   -3.489920    1.865740
    110          9           0       -0.081350   -2.964610    1.095240
    111          9           0        0.390820   -2.226300    3.077670
    112          9           0       -0.192320   -4.294830    2.799930
 ---------------------------------------------------------------------
 Rotational constants (GHZ):           0.0470064           0.0359843           0.0304164
 Leave Link  202 at Tue Nov 15 20:24:20 2022, MaxMem=  8053063680 cpu:               0.9 elap:               0.2
 (Enter /project/chenjingdan/g16/l301.exe)
 Standard basis: 6-31G(d,p) (6D, 7F)
 Ernie: Thresh=  0.10000D-02 Tol=  0.10000D-05 Strict=F.
  1224 basis functions,  2194 primitive gaussians,  1224 cartesian basis functions
   244 alpha electrons      244 beta electrons
       nuclear repulsion energy     12270.2122141179 Hartrees.
 IExCor= 4336 DFT=T Ex+Corr=M062X ExCW=0 ScaHFX=  0.540000
 ScaDFX=  1.000000  1.000000  1.000000  1.000000 ScalE2=  1.000000  1.000000
 IRadAn=      5 IRanWt=     -1 IRanGd=            0 ICorTp=0 IEmpDi=  4
 NAtoms=  112 NActive=  112 NUniq=  112 SFac= 1.00D+00 NAtFMM=   60 NAOKFM=T Big=T
 Integral buffers will be    131072 words long.
 Raffenetti 2 integral format.
 Two-electron integral symmetry is turned off.
 Leave Link  301 at Tue Nov 15 20:24:21 2022, MaxMem=  8053063680 cpu:               3.2 elap:               0.3
 (Enter /project/chenjingdan/g16/l302.exe)
 NPDir=0 NMtPBC=     1 NCelOv=     1 NCel=       1 NClECP=     1 NCelD=      1
         NCelK=      1 NCelE2=     1 NClLst=     1 CellRange=     0.0.
 One-electron integrals computed using PRISM.
 NBasis=  1224 RedAO= T EigKep=  2.33D-04  NBF=  1224
 NBsUse=  1224 1.00D-06 EigRej= -1.00D+00 NBFU=  1224
 Precomputing XC quadrature grid using
 IXCGrd= 4 IRadAn=           5 IRanWt=          -1 IRanGd=           0 AccXCQ= 0.00D+00.
 Generated NRdTot=       0 NPtTot=           0 NUsed=           0 NTot=          32
 NSgBfM=  1145  1142  1142  1145  1145 MxSgAt=   112 MxSgA2=   112.
 Leave Link  302 at Tue Nov 15 20:24:24 2022, MaxMem=  8053063680 cpu:              44.8 elap:               2.8
 (Enter /project/chenjingdan/g16/l303.exe)
 DipDrv:  MaxL=1.
 Leave Link  303 at Tue Nov 15 20:24:24 2022, MaxMem=  8053063680 cpu:               2.6 elap:               0.2
 (Enter /project/chenjingdan/g16/l401.exe)
 ExpMin= 9.98D-02 ExpMax= 1.94D+04 ExpMxC= 2.91D+03 IAcc=3 IRadAn=         5 AccDes= 0.00D+00
 Harris functional with IExCor= 1009 and IRadAn=       5 diagonalized for initial guess.
 HarFok:  IExCor= 1009 AccDes= 0.00D+00 IRadAn=         5 IDoV= 1 UseB2=F ITyADJ=14
 ICtDFT=  3500011 ScaDFX=  1.000000  1.000000  1.000000  1.000000
 FoFCou: FMM=F IPFlag=           0 FMFlag=      100000 FMFlg1=        2001
         NFxFlg=           0 DoJE=T BraDBF=F KetDBF=T FulRan=T
         wScrn=  0.000000 ICntrl=       500 IOpCl=  0 I1Cent=   200000004 NGrid=           0
         NMat0=    1 NMatS0=      1 NMatT0=    0 NMatD0=    1 NMtDS0=    0 NMtDT0=    0
 Symmetry not used in FoFCou.
 Harris En= -3556.24711930512    
 JPrj=0 DoOrth=F DoCkMO=F.
 Leave Link  401 at Tue Nov 15 20:24:33 2022, MaxMem=  8053063680 cpu:             118.6 elap:               7.5
 (Enter /project/chenjingdan/g16/l502.exe)
 Two-electron integral symmetry not used.
 Closed shell SCF:
 Using DIIS extrapolation, IDIIS=  1040.
 NGot=  8053063680 LenX=  8050035410 LenY=  8048536010
 Requested convergence on RMS density matrix=1.00D-08 within 128 cycles.
 Requested convergence on MAX density matrix=1.00D-06.
 Requested convergence on             energy=1.00D-06.
 No special actions if energy rises.
 Fock matrices will be formed incrementally for  20 cycles.
 Integral accuracy reduced to 1.0D-05 until final iterations.

 Cycle   1  Pass 0  IDiag  1:
 FoFJK:  IHMeth= 1 ICntrl=       0 DoSepK=F KAlg= 0 I1Cent=           0 FoldK=F
 IRaf= 730000000 NMat=       1 IRICut=       1 DoRegI=T DoRafI=F ISym2E= 0 IDoP0=0 IntGTp=1.
 FoFCou: FMM=T IPFlag=           0 FMFlag=      100000 FMFlg1=        2001
         NFxFlg=           0 DoJE=F BraDBF=F KetDBF=F FulRan=T
         wScrn=  0.000000 ICntrl=         0 IOpCl=  0 I1Cent=           0 NGrid=           0
         NMat0=    1 NMatS0=      1 NMatT0=    0 NMatD0=    1 NMtDS0=    0 NMtDT0=    0
 Symmetry not used in FoFCou.
 FMM levels:  10  Number of levels for PrismC:   9
 E= -3556.41622842295    
 DIIS: error= 1.97D-02 at cycle   1 NSaved=   1.
 NSaved= 1 IEnMin= 1 EnMin= -3556.41622842295     IErMin= 1 ErrMin= 1.97D-02
 ErrMax= 1.97D-02  0.00D+00 EMaxC= 1.00D-01 BMatC= 1.90D+00 BMatP= 1.90D+00
 IDIUse=3 WtCom= 8.03D-01 WtEn= 1.97D-01
 Coeff-Com:  0.100D+01
 Coeff-En:   0.100D+01
 Coeff:      0.100D+01
 Gap=     0.187 Goal=   None    Shift=    0.000
 GapD=    0.187 DampG=1.000 DampE=0.500 DampFc=0.5000 IDamp=-1.
 Damping current iteration by 5.00D-01
 RMSDP=1.96D-03 MaxDP=2.39D-01              OVMax= 2.19D-01

 Cycle   2  Pass 0  IDiag  1:
 RMSU=  9.68D-04    CP:  9.84D-01
 E= -3557.17535959503     Delta-E=       -0.759131172075 Rises=F Damp=T
 DIIS: error= 8.61D-03 at cycle   2 NSaved=   2.
 NSaved= 2 IEnMin= 2 EnMin= -3557.17535959503     IErMin= 2 ErrMin= 8.61D-03
 ErrMax= 8.61D-03  0.00D+00 EMaxC= 1.00D-01 BMatC= 1.62D-01 BMatP= 1.90D+00
 IDIUse=3 WtCom= 9.14D-01 WtEn= 8.61D-02
 Coeff-Com: -0.496D-01 0.105D+01
 Coeff-En:   0.000D+00 0.100D+01
 Coeff:     -0.453D-01 0.105D+01
 Gap=     0.228 Goal=   None    Shift=    0.000
 RMSDP=6.11D-04 MaxDP=9.24D-02 DE=-7.59D-01 OVMax= 1.29D-01

 Cycle   3  Pass 0  IDiag  1:
 RMSU=  5.97D-04    CP:  9.73D-01  1.08D+00
 E= -3557.89585039378     Delta-E=       -0.720490798749 Rises=F Damp=F
 DIIS: error= 8.67D-03 at cycle   3 NSaved=   3.
 NSaved= 3 IEnMin= 3 EnMin= -3557.89585039378     IErMin= 2 ErrMin= 8.61D-03
 ErrMax= 8.67D-03  0.00D+00 EMaxC= 1.00D-01 BMatC= 8.31D-02 BMatP= 1.62D-01
 IDIUse=3 WtCom= 9.13D-01 WtEn= 8.67D-02
 Coeff-Com: -0.897D-01 0.451D+00 0.639D+00
 Coeff-En:   0.000D+00 0.000D+00 0.100D+01
 Coeff:     -0.820D-01 0.412D+00 0.670D+00
 Gap=     0.201 Goal=   None    Shift=    0.000
 RMSDP=3.08D-04 MaxDP=5.03D-02 DE=-7.20D-01 OVMax= 5.82D-02

 Cycle   4  Pass 0  IDiag  1:
 RMSU=  2.26D-04    CP:  9.75D-01  1.15D+00  6.69D-01
 E= -3557.94741418551     Delta-E=       -0.051563791734 Rises=F Damp=F
 DIIS: error= 3.64D-03 at cycle   4 NSaved=   4.
 NSaved= 4 IEnMin= 4 EnMin= -3557.94741418551     IErMin= 4 ErrMin= 3.64D-03
 ErrMax= 3.64D-03  0.00D+00 EMaxC= 1.00D-01 BMatC= 1.80D-02 BMatP= 8.31D-02
 IDIUse=3 WtCom= 9.64D-01 WtEn= 3.64D-02
 Coeff-Com: -0.296D-01 0.857D-01 0.351D+00 0.592D+00
 Coeff-En:   0.000D+00 0.000D+00 0.182D+00 0.818D+00
 Coeff:     -0.285D-01 0.826D-01 0.345D+00 0.601D+00
 Gap=     0.195 Goal=   None    Shift=    0.000
 RMSDP=1.27D-04 MaxDP=1.47D-02 DE=-5.16D-02 OVMax= 2.00D-02

 Cycle   5  Pass 0  IDiag  1:
 RMSU=  5.46D-05    CP:  9.74D-01  1.14D+00  7.75D-01  5.78D-01
 E= -3557.96189244851     Delta-E=       -0.014478262994 Rises=F Damp=F
 DIIS: error= 3.91D-04 at cycle   5 NSaved=   5.
 NSaved= 5 IEnMin= 5 EnMin= -3557.96189244851     IErMin= 5 ErrMin= 3.91D-04
 ErrMax= 3.91D-04  0.00D+00 EMaxC= 1.00D-01 BMatC= 9.14D-04 BMatP= 1.80D-02
 IDIUse=3 WtCom= 9.96D-01 WtEn= 3.91D-03
 Coeff-Com: -0.979D-02 0.209D-01 0.143D+00 0.303D+00 0.544D+00
 Coeff-En:   0.000D+00 0.000D+00 0.000D+00 0.000D+00 0.100D+01
 Coeff:     -0.975D-02 0.208D-01 0.142D+00 0.302D+00 0.546D+00
 Gap=     0.196 Goal=   None    Shift=    0.000
 RMSDP=3.14D-05 MaxDP=2.46D-03 DE=-1.45D-02 OVMax= 5.44D-03

 Cycle   6  Pass 0  IDiag  1:
 RMSU=  1.74D-05    CP:  9.74D-01  1.14D+00  7.71D-01  6.40D-01  6.02D-01
 E= -3557.96270922257     Delta-E=       -0.000816774065 Rises=F Damp=F
 DIIS: error= 1.09D-04 at cycle   6 NSaved=   6.
 NSaved= 6 IEnMin= 6 EnMin= -3557.96270922257     IErMin= 6 ErrMin= 1.09D-04
 ErrMax= 1.09D-04  0.00D+00 EMaxC= 1.00D-01 BMatC= 5.48D-05 BMatP= 9.14D-04
 IDIUse=3 WtCom= 9.99D-01 WtEn= 1.09D-03
 Coeff-Com: -0.139D-02 0.124D-02 0.290D-01 0.730D-01 0.242D+00 0.656D+00
 Coeff-En:   0.000D+00 0.000D+00 0.000D+00 0.000D+00 0.000D+00 0.100D+01
 Coeff:     -0.139D-02 0.124D-02 0.290D-01 0.729D-01 0.242D+00 0.656D+00
 Gap=     0.196 Goal=   None    Shift=    0.000
 RMSDP=8.81D-06 MaxDP=1.19D-03 DE=-8.17D-04 OVMax= 1.74D-03

 Cycle   7  Pass 0  IDiag  1:
 RMSU=  5.63D-06    CP:  9.74D-01  1.14D+00  7.77D-01  6.37D-01  6.83D-01
                    CP:  7.72D-01
 E= -3557.96277361443     Delta-E=       -0.000064391859 Rises=F Damp=F
 DIIS: error= 8.78D-05 at cycle   7 NSaved=   7.
 NSaved= 7 IEnMin= 7 EnMin= -3557.96277361443     IErMin= 7 ErrMin= 8.78D-05
 ErrMax= 8.78D-05  0.00D+00 EMaxC= 1.00D-01 BMatC= 9.43D-06 BMatP= 5.48D-05
 IDIUse=1 WtCom= 1.00D+00 WtEn= 0.00D+00
 Coeff-Com:  0.400D-03-0.183D-02-0.112D-02 0.332D-02 0.709D-01 0.348D+00
 Coeff-Com:  0.580D+00
 Coeff:      0.400D-03-0.183D-02-0.112D-02 0.332D-02 0.709D-01 0.348D+00
 Coeff:      0.580D+00
 Gap=     0.196 Goal=   None    Shift=    0.000
 RMSDP=3.45D-06 MaxDP=5.65D-04 DE=-6.44D-05 OVMax= 8.92D-04

 Initial convergence to 1.0D-05 achieved.  Increase integral accuracy.
 Cycle   8  Pass 1  IDiag  1:
 E= -3557.96233015462     Delta-E=        0.000443459812 Rises=F Damp=F
 DIIS: error= 3.26D-04 at cycle   1 NSaved=   1.
 NSaved= 1 IEnMin= 1 EnMin= -3557.96233015462     IErMin= 1 ErrMin= 3.26D-04
 ErrMax= 3.26D-04  0.00D+00 EMaxC= 1.00D-01 BMatC= 8.05D-05 BMatP= 8.05D-05
 IDIUse=3 WtCom= 9.97D-01 WtEn= 3.26D-03
 Coeff-Com:  0.100D+01
 Coeff-En:   0.100D+01
 Coeff:      0.100D+01
 Gap=     0.196 Goal=   None    Shift=    0.000
 RMSDP=3.45D-06 MaxDP=5.65D-04 DE= 4.43D-04 OVMax= 1.08D-03

 Cycle   9  Pass 1  IDiag  1:
 RMSU=  1.32D-04    CP:  1.00D+00
 E= -3557.96239467029     Delta-E=       -0.000064515671 Rises=F Damp=F
 DIIS: error= 8.46D-05 at cycle   2 NSaved=   2.
 NSaved= 2 IEnMin= 2 EnMin= -3557.96239467029     IErMin= 2 ErrMin= 8.46D-05
 ErrMax= 8.46D-05  0.00D+00 EMaxC= 1.00D-01 BMatC= 4.11D-06 BMatP= 8.05D-05
 IDIUse=1 WtCom= 1.00D+00 WtEn= 0.00D+00
 Coeff-Com:  0.523D-01 0.948D+00
 Coeff:      0.523D-01 0.948D+00
 Gap=     0.196 Goal=   None    Shift=    0.000
 RMSDP=5.31D-06 MaxDP=9.77D-04 DE=-6.45D-05 OVMax= 1.89D-03

 Cycle  10  Pass 1  IDiag  1:
 RMSU=  4.05D-06    CP:  1.00D+00  1.03D+00
 E= -3557.96238785793     Delta-E=        0.000006812355 Rises=F Damp=F
 DIIS: error= 1.60D-04 at cycle   3 NSaved=   3.
 NSaved= 3 IEnMin= 2 EnMin= -3557.96239467029     IErMin= 2 ErrMin= 8.46D-05
 ErrMax= 1.60D-04  0.00D+00 EMaxC= 1.00D-01 BMatC= 1.29D-05 BMatP= 4.11D-06
 IDIUse=3 WtCom= 4.41D-01 WtEn= 5.59D-01
 Coeff-Com: -0.139D-01 0.647D+00 0.367D+00
 Coeff-En:   0.000D+00 0.709D+00 0.291D+00
 Coeff:     -0.615D-02 0.682D+00 0.324D+00
 Gap=     0.196 Goal=   None    Shift=    0.000
 RMSDP=2.17D-06 MaxDP=5.91D-04 DE= 6.81D-06 OVMax= 1.14D-03

 Cycle  11  Pass 1  IDiag  1:
 RMSU=  6.89D-07    CP:  1.00D+00  1.03D+00  4.95D-01
 E= -3557.96239789223     Delta-E=       -0.000010034295 Rises=F Damp=F
 DIIS: error= 1.31D-05 at cycle   4 NSaved=   4.
 NSaved= 4 IEnMin= 4 EnMin= -3557.96239789223     IErMin= 4 ErrMin= 1.31D-05
 ErrMax= 1.31D-05  0.00D+00 EMaxC= 1.00D-01 BMatC= 1.65D-07 BMatP= 4.11D-06
 IDIUse=1 WtCom= 1.00D+00 WtEn= 0.00D+00
 Coeff-Com: -0.719D-02 0.301D+00 0.108D+00 0.599D+00
 Coeff:     -0.719D-02 0.301D+00 0.108D+00 0.599D+00
 Gap=     0.196 Goal=   None    Shift=    0.000
 RMSDP=3.43D-07 MaxDP=5.76D-05 DE=-1.00D-05 OVMax= 1.12D-04

 Cycle  12  Pass 1  IDiag  1:
 RMSU=  1.92D-07    CP:  1.00D+00  1.03D+00  4.27D-01  1.08D+00
 E= -3557.96239803203     Delta-E=       -0.000000139804 Rises=F Damp=F
 DIIS: error= 1.40D-06 at cycle   5 NSaved=   5.
 NSaved= 5 IEnMin= 5 EnMin= -3557.96239803203     IErMin= 5 ErrMin= 1.40D-06
 ErrMax= 1.40D-06  0.00D+00 EMaxC= 1.00D-01 BMatC= 4.04D-09 BMatP= 1.65D-07
 IDIUse=1 WtCom= 1.00D+00 WtEn= 0.00D+00
 Coeff-Com: -0.806D-03 0.233D-01-0.121D-01 0.259D+00 0.731D+00
 Coeff:     -0.806D-03 0.233D-01-0.121D-01 0.259D+00 0.731D+00
 Gap=     0.196 Goal=   None    Shift=    0.000
 RMSDP=9.36D-08 MaxDP=7.73D-06 DE=-1.40D-07 OVMax= 2.50D-05

 Cycle  13  Pass 1  IDiag  1:
 RMSU=  7.12D-08    CP:  1.00D+00  1.03D+00  4.34D-01  1.14D+00  8.44D-01
 E= -3557.96239803651     Delta-E=       -0.000000004482 Rises=F Damp=F
 DIIS: error= 6.47D-07 at cycle   6 NSaved=   6.
 NSaved= 6 IEnMin= 6 EnMin= -3557.96239803651     IErMin= 6 ErrMin= 6.47D-07
 ErrMax= 6.47D-07  0.00D+00 EMaxC= 1.00D-01 BMatC= 9.75D-10 BMatP= 4.04D-09
 IDIUse=1 WtCom= 1.00D+00 WtEn= 0.00D+00
 Coeff-Com:  0.881D-03-0.424D-01-0.259D-01 0.332D-01 0.390D+00 0.645D+00
 Coeff:      0.881D-03-0.424D-01-0.259D-01 0.332D-01 0.390D+00 0.645D+00
 Gap=     0.196 Goal=   None    Shift=    0.000
 RMSDP=4.14D-08 MaxDP=3.10D-06 DE=-4.48D-09 OVMax= 1.56D-05

 Cycle  14  Pass 1  IDiag  1:
 RMSU=  3.32D-08    CP:  1.00D+00  1.03D+00  4.34D-01  1.15D+00  9.46D-01
                    CP:  9.15D-01
 E= -3557.96239803788     Delta-E=       -0.000000001362 Rises=F Damp=F
 DIIS: error= 1.49D-07 at cycle   7 NSaved=   7.
 NSaved= 7 IEnMin= 7 EnMin= -3557.96239803788     IErMin= 7 ErrMin= 1.49D-07
 ErrMax= 1.49D-07  0.00D+00 EMaxC= 1.00D-01 BMatC= 8.52D-11 BMatP= 9.75D-10
 IDIUse=1 WtCom= 1.00D+00 WtEn= 0.00D+00
 Coeff-Com:  0.401D-03-0.176D-01-0.728D-02-0.180D-01 0.481D-01 0.235D+00
 Coeff-Com:  0.759D+00
 Coeff:      0.401D-03-0.176D-01-0.728D-02-0.180D-01 0.481D-01 0.235D+00
 Coeff:      0.759D+00
 Gap=     0.196 Goal=   None    Shift=    0.000
 RMSDP=1.65D-08 MaxDP=1.65D-06 DE=-1.36D-09 OVMax= 6.91D-06

 Cycle  15  Pass 1  IDiag  1:
 RMSU=  1.16D-08    CP:  1.00D+00  1.03D+00  4.35D-01  1.16D+00  9.45D-01
                    CP:  1.06D+00  1.10D+00
 E= -3557.96239803811     Delta-E=       -0.000000000229 Rises=F Damp=F
 DIIS: error= 6.53D-08 at cycle   8 NSaved=   8.
 NSaved= 8 IEnMin= 8 EnMin= -3557.96239803811     IErMin= 8 ErrMin= 6.53D-08
 ErrMax= 6.53D-08  0.00D+00 EMaxC= 1.00D-01 BMatC= 2.15D-11 BMatP= 8.52D-11
 IDIUse=1 WtCom= 1.00D+00 WtEn= 0.00D+00
 Coeff-Com: -0.481D-04 0.308D-02 0.362D-02-0.170D-01-0.816D-01-0.612D-01
 Coeff-Com:  0.347D+00 0.806D+00
 Coeff:     -0.481D-04 0.308D-02 0.362D-02-0.170D-01-0.816D-01-0.612D-01
 Coeff:      0.347D+00 0.806D+00
 Gap=     0.196 Goal=   None    Shift=    0.000
 RMSDP=9.24D-09 MaxDP=1.19D-06 DE=-2.29D-10 OVMax= 3.73D-06

 Cycle  16  Pass 1  IDiag  1:
 RMSU=  5.27D-09    CP:  1.00D+00  1.03D+00  4.35D-01  1.16D+00  9.55D-01
                    CP:  1.11D+00  1.29D+00  9.74D-01
 E= -3557.96239803809     Delta-E=        0.000000000015 Rises=F Damp=F
 DIIS: error= 4.24D-08 at cycle   9 NSaved=   9.
 NSaved= 9 IEnMin= 8 EnMin= -3557.96239803811     IErMin= 9 ErrMin= 4.24D-08
 ErrMax= 4.24D-08  0.00D+00 EMaxC= 1.00D-01 BMatC= 3.41D-12 BMatP= 2.15D-11
 IDIUse=1 WtCom= 1.00D+00 WtEn= 0.00D+00
 Coeff-Com: -0.692D-04 0.348D-02 0.250D-02-0.527D-02-0.422D-01-0.553D-01
 Coeff-Com:  0.724D-01 0.374D+00 0.651D+00
 Coeff:     -0.692D-04 0.348D-02 0.250D-02-0.527D-02-0.422D-01-0.553D-01
 Coeff:      0.724D-01 0.374D+00 0.651D+00
 Gap=     0.196 Goal=   None    Shift=    0.000
 RMSDP=2.94D-09 MaxDP=3.94D-07 DE= 1.46D-11 OVMax= 1.42D-06

 SCF Done:  E(RM062X) =  -3557.96239804     A.U. after   16 cycles
            NFock= 16  Conv=0.29D-08     -V/T= 2.0077
 KE= 3.530869679139D+03 PE=-3.286468351127D+04 EE= 1.350563921998D+04
 Leave Link  502 at Tue Nov 15 20:31:03 2022, MaxMem=  8053063680 cpu:            6214.6 elap:             389.4
 (Enter /project/chenjingdan/g16/l801.exe)
 DoSCS=F DFT=T ScalE2(SS,OS)=  1.000000  1.000000
 Range of M.O.s used for correlation:     1  1224
 NBasis=  1224 NAE=   244 NBE=   244 NFC=     0 NFV=     0
 NROrb=   1224 NOA=   244 NOB=   244 NVA=   980 NVB=   980
 Leave Link  801 at Tue Nov 15 20:31:03 2022, MaxMem=  8053063680 cpu:               0.9 elap:               0.1
 (Enter /project/chenjingdan/g16/l1101.exe)
 Using compressed storage, NAtomX=   112.
 Will process    113 centers per pass.
 Leave Link 1101 at Tue Nov 15 20:31:10 2022, MaxMem=  8053063680 cpu:              94.3 elap:               6.2
 (Enter /project/chenjingdan/g16/l1102.exe)
 Symmetrizing basis deriv contribution to polar:
 IMax=3 JMax=2 DiffMx= 0.00D+00
 Leave Link 1102 at Tue Nov 15 20:31:11 2022, MaxMem=  8053063680 cpu:               3.0 elap:               0.3
 (Enter /project/chenjingdan/g16/l1110.exe)
 Forming Gx(P) for the SCF density, NAtomX=   112.
 Integral derivatives from FoFJK, PRISM(SPDF).
 Do as many integral derivatives as possible in FoFJK.
 G2DrvN: MDV=    8053052008.
 G2DrvN: will do   113 centers at a time, making    1 passes.
 Calling FoFCou, ICntrl=  3107 FMM=T I1Cent=   0 AccDes= 0.00D+00.
 FoFJK:  IHMeth= 1 ICntrl=    3107 DoSepK=F KAlg= 0 I1Cent=           0 FoldK=F
 IRaf=         0 NMat=       1 IRICut=       1 DoRegI=T DoRafI=F ISym2E= 0 IDoP0=0 IntGTp=1.
 FoFCou: FMM=T IPFlag=           0 FMFlag=      100000 FMFlg1=        2001
         NFxFlg=           0 DoJE=F BraDBF=F KetDBF=F FulRan=T
         wScrn=  0.000000 ICntrl=      3107 IOpCl=  0 I1Cent=           0 NGrid=           0
         NMat0=    1 NMatS0=      1 NMatT0=    0 NMatD0=    1 NMtDS0=    0 NMtDT0=    0
 Symmetry not used in FoFCou.
 FMM levels:  10  Number of levels for PrismC:   9
 End of G2Drv F.D. properties file   721 does not exist.
 End of G2Drv F.D. properties file   722 does not exist.
 End of G2Drv F.D. properties file   788 does not exist.
 Leave Link 1110 at Tue Nov 15 21:11:11 2022, MaxMem=  8053063680 cpu:           38389.2 elap:            2399.7
 (Enter /project/chenjingdan/g16/l1002.exe)
 Minotr:  Closed shell wavefunction.
          IDoAtm=11111111111111111111111111111111111111111111111111
          IDoAtm=11111111111111111111111111111111111111111111111111
          IDoAtm=111111111111
          Direct CPHF calculation.
          Differentiating once with respect to nuclear coordinates.
          Requested convergence is 1.0D-08 RMS, and 1.0D-07 maximum.
          Secondary convergence is 1.0D-12 RMS, and 1.0D-12 maximum.
          NewPWx=T KeepS1=F KeepF1=F KeepIn=T MapXYZ=F SortEE=F KeepMc=T.
        34084 words used for storage of precomputed grid.
 Two-electron integral symmetry not used.
          MDV=    8053063680 using IRadAn=       1.
          Solving linear equations simultaneously, MaxMat=      72.
 FoF2E skips out because all densities are zero.
 CalDSu exits because no D1Ps are significant.
 FoFJK:  IHMeth= 1 ICntrl=       0 DoSepK=F KAlg= 0 I1Cent=           0 FoldK=F
 IRaf= 660000000 NMat=      72 IRICut=       1 DoRegI=T DoRafI=F ISym2E= 0 IDoP0=0 IntGTp=1.
 FoFCou: FMM=T IPFlag=           0 FMFlag=      100000 FMFlg1=        2001
         NFxFlg=           0 DoJE=F BraDBF=F KetDBF=F FulRan=T
         wScrn=  0.000000 ICntrl=         0 IOpCl=  0 I1Cent=           0 NGrid=           0
         NMat0=   72 NMatS0=     72 NMatT0=    0 NMatD0=   72 NMtDS0=    0 NMtDT0=    0
 Symmetry not used in FoFCou.
 FMM levels:  10  Number of levels for PrismC:   9
          There are   339 degrees of freedom in the 1st order CPHF.  IDoFFX=6 NUNeed=     0.
    333 vectors produced by pass  0 Test12= 2.39D-13 1.00D-09 XBig12= 1.99D-01 9.44D-02.
 AX will form    72 AO Fock derivatives at one time.
    333 vectors produced by pass  1 Test12= 2.39D-13 1.00D-09 XBig12= 9.38D-02 1.45D-01.
    333 vectors produced by pass  2 Test12= 2.39D-13 1.00D-09 XBig12= 2.95D-03 7.49D-03.
    333 vectors produced by pass  3 Test12= 2.39D-13 1.00D-09 XBig12= 3.46D-05 6.26D-04.
    333 vectors produced by pass  4 Test12= 2.39D-13 1.00D-09 XBig12= 3.04D-07 4.26D-05.
    333 vectors produced by pass  5 Test12= 2.39D-13 1.00D-09 XBig12= 1.35D-09 2.33D-06.
    211 vectors produced by pass  6 Test12= 2.39D-13 1.00D-09 XBig12= 4.78D-12 1.33D-07.
     14 vectors produced by pass  7 Test12= 2.39D-13 1.00D-09 XBig12= 1.34D-14 7.30D-09.
      1 vectors produced by pass  8 Test12= 2.39D-13 1.00D-09 XBig12= 3.65D-15 1.98D-09.
 InvSVY:  IOpt=1 It=  1 EMax= 5.55D-16
 Solved reduced A of dimension  2224 with   339 vectors.
 End of Minotr F.D. properties file   721 does not exist.
 End of Minotr F.D. properties file   722 does not exist.
 End of Minotr F.D. properties file   788 does not exist.
 Leave Link 1002 at Tue Nov 15 23:22:11 2022, MaxMem=  8053063680 cpu:          125716.6 elap:            7858.9
 (Enter /project/chenjingdan/g16/l601.exe)
 Copying SCF densities to generalized density rwf, IOpCl= 0 IROHF=0.
 Hyperfine terms turned off by default for NAtoms > 100.

 **********************************************************************

            Population analysis using the SCF Density.

 **********************************************************************

 Alpha  occ. eigenvalues --  -78.21373 -25.30506 -25.30471 -25.30261 -25.28398
 Alpha  occ. eigenvalues --  -25.28273 -19.70973 -19.70323 -19.69271 -19.68493
 Alpha  occ. eigenvalues --  -19.68226 -19.68199 -19.67953 -19.65633 -19.64332
 Alpha  occ. eigenvalues --  -19.61991 -15.01798 -14.83345 -10.81582 -10.74241
 Alpha  occ. eigenvalues --  -10.71211 -10.70509 -10.66338 -10.63319 -10.63213
 Alpha  occ. eigenvalues --  -10.61770 -10.61617 -10.60885 -10.59829 -10.59073
 Alpha  occ. eigenvalues --  -10.58981 -10.58062 -10.57547 -10.56093 -10.56085
 Alpha  occ. eigenvalues --  -10.55901 -10.55797 -10.55703 -10.55597 -10.55461
 Alpha  occ. eigenvalues --  -10.55355 -10.55334 -10.55333 -10.55262 -10.55242
 Alpha  occ. eigenvalues --  -10.55207 -10.55196 -10.55183 -10.55153 -10.55106
 Alpha  occ. eigenvalues --  -10.55100 -10.55099 -10.55077 -10.55044 -10.55035
 Alpha  occ. eigenvalues --  -10.54885 -10.54117 -10.54098 -10.53671 -10.53637
 Alpha  occ. eigenvalues --  -10.53600 -10.53509 -10.53088 -10.52997 -10.52982
 Alpha  occ. eigenvalues --  -10.52872  -6.99369  -5.11183  -5.11108  -5.11050
 Alpha  occ. eigenvalues --   -1.47851  -1.41916  -1.38389  -1.38291  -1.37168
 Alpha  occ. eigenvalues --   -1.35650  -1.25857  -1.23536  -1.23479  -1.23350
 Alpha  occ. eigenvalues --   -1.18478  -1.17939  -1.15151  -1.13671  -1.09271
 Alpha  occ. eigenvalues --   -1.08387  -1.01468  -0.99971  -0.97625  -0.96601
 Alpha  occ. eigenvalues --   -0.95815  -0.94158  -0.93126  -0.92490  -0.90566
 Alpha  occ. eigenvalues --   -0.89203  -0.88289  -0.87927  -0.87212  -0.87188
 Alpha  occ. eigenvalues --   -0.87087  -0.85814  -0.84044  -0.83889  -0.82654
 Alpha  occ. eigenvalues --   -0.82131  -0.81894  -0.79348  -0.78532  -0.78467
 Alpha  occ. eigenvalues --   -0.77723  -0.77154  -0.76325  -0.76196  -0.75976
 Alpha  occ. eigenvalues --   -0.75894  -0.75589  -0.73137  -0.72798  -0.71618
 Alpha  occ. eigenvalues --   -0.71577  -0.71036  -0.70453  -0.69961  -0.69885
 Alpha  occ. eigenvalues --   -0.69197  -0.68608  -0.67489  -0.67401  -0.67029
 Alpha  occ. eigenvalues --   -0.65788  -0.65625  -0.64590  -0.64551  -0.64322
 Alpha  occ. eigenvalues --   -0.64024  -0.63606  -0.63324  -0.62669  -0.62387
 Alpha  occ. eigenvalues --   -0.61480  -0.60748  -0.60488  -0.59891  -0.59449
 Alpha  occ. eigenvalues --   -0.58588  -0.57850  -0.57815  -0.57515  -0.57393
 Alpha  occ. eigenvalues --   -0.57243  -0.57059  -0.56853  -0.56601  -0.55966
 Alpha  occ. eigenvalues --   -0.55352  -0.55235  -0.55114  -0.54970  -0.54594
 Alpha  occ. eigenvalues --   -0.54436  -0.54121  -0.53500  -0.53402  -0.53088
 Alpha  occ. eigenvalues --   -0.53020  -0.52671  -0.52274  -0.51636  -0.51452
 Alpha  occ. eigenvalues --   -0.51331  -0.50768  -0.50700  -0.50458  -0.49903
 Alpha  occ. eigenvalues --   -0.49671  -0.49173  -0.49139  -0.48812  -0.48798
 Alpha  occ. eigenvalues --   -0.48604  -0.48419  -0.48116  -0.47818  -0.47507
 Alpha  occ. eigenvalues --   -0.47309  -0.47234  -0.46829  -0.46663  -0.46542
 Alpha  occ. eigenvalues --   -0.46311  -0.46176  -0.45998  -0.45804  -0.45601
 Alpha  occ. eigenvalues --   -0.45533  -0.45434  -0.45113  -0.45068  -0.44961
 Alpha  occ. eigenvalues --   -0.44748  -0.44665  -0.44127  -0.43707  -0.43428
 Alpha  occ. eigenvalues --   -0.43075  -0.42749  -0.42298  -0.42004  -0.41763
 Alpha  occ. eigenvalues --   -0.41635  -0.41602  -0.41350  -0.41112  -0.40939
 Alpha  occ. eigenvalues --   -0.40313  -0.39830  -0.39666  -0.39389  -0.39076
 Alpha  occ. eigenvalues --   -0.38915  -0.38773  -0.38674  -0.38604  -0.38251
 Alpha  occ. eigenvalues --   -0.38050  -0.37902  -0.37834  -0.37634  -0.37529
 Alpha  occ. eigenvalues --   -0.37100  -0.37006  -0.36715  -0.34675  -0.31637
 Alpha  occ. eigenvalues --   -0.30418  -0.30243  -0.29885  -0.28523  -0.28314
 Alpha  occ. eigenvalues --   -0.28004  -0.27791  -0.26882  -0.26392
 Alpha virt. eigenvalues --   -0.06806  -0.00489   0.00239   0.01257   0.01496
 Alpha virt. eigenvalues --    0.02492   0.02894   0.03773   0.04280   0.04377
 Alpha virt. eigenvalues --    0.05326   0.05736   0.07009   0.09223   0.10064
 Alpha virt. eigenvalues --    0.11095   0.12167   0.12748   0.13327   0.13637
 Alpha virt. eigenvalues --    0.13990   0.14053   0.14404   0.15000   0.15108
 Alpha virt. eigenvalues --    0.15672   0.15847   0.16238   0.16540   0.16583
 Alpha virt. eigenvalues --    0.16928   0.17015   0.17400   0.17573   0.17940
 Alpha virt. eigenvalues --    0.17940   0.18325   0.18437   0.18640   0.18778
 Alpha virt. eigenvalues --    0.19121   0.19323   0.19651   0.19748   0.20087
 Alpha virt. eigenvalues --    0.20300   0.20497   0.20770   0.21068   0.21278
 Alpha virt. eigenvalues --    0.21529   0.21674   0.21883   0.22134   0.22405
 Alpha virt. eigenvalues --    0.22591   0.22676   0.23009   0.23091   0.23562
 Alpha virt. eigenvalues --    0.23698   0.24136   0.24325   0.24416   0.24694
 Alpha virt. eigenvalues --    0.24837   0.25266   0.25373   0.25762   0.25904
 Alpha virt. eigenvalues --    0.26216   0.26875   0.26989   0.27385   0.27537
 Alpha virt. eigenvalues --    0.27981   0.28122   0.28243   0.28648   0.28890
 Alpha virt. eigenvalues --    0.29110   0.29317   0.29620   0.29847   0.29938
 Alpha virt. eigenvalues --    0.30395   0.30790   0.31032   0.31232   0.31445
 Alpha virt. eigenvalues --    0.31720   0.31777   0.31898   0.32305   0.32459
 Alpha virt. eigenvalues --    0.32863   0.33480   0.33752   0.33847   0.34452
 Alpha virt. eigenvalues --    0.34993   0.35531   0.36075   0.36933   0.37286
 Alpha virt. eigenvalues --    0.37360   0.37866   0.38110   0.39317   0.39638
 Alpha virt. eigenvalues --    0.40188   0.40358   0.41207   0.41310   0.41514
 Alpha virt. eigenvalues --    0.41725   0.42191   0.42414   0.42656   0.43160
 Alpha virt. eigenvalues --    0.43410   0.43644   0.44492   0.44661   0.44924
 Alpha virt. eigenvalues --    0.45860   0.46090   0.46567   0.47059   0.47651
 Alpha virt. eigenvalues --    0.48920   0.50140   0.50751   0.50996   0.51723
 Alpha virt. eigenvalues --    0.52475   0.52985   0.53004   0.53263   0.53603
 Alpha virt. eigenvalues --    0.53766   0.54336   0.54568   0.54945   0.55473
 Alpha virt. eigenvalues --    0.55537   0.55719   0.56067   0.56227   0.56575
 Alpha virt. eigenvalues --    0.57008   0.57181   0.57346   0.57551   0.57638
 Alpha virt. eigenvalues --    0.58129   0.58413   0.58505   0.58957   0.59161
 Alpha virt. eigenvalues --    0.59283   0.59575   0.59919   0.60081   0.60193
 Alpha virt. eigenvalues --    0.60328   0.60639   0.60826   0.61136   0.61365
 Alpha virt. eigenvalues --    0.61650   0.61895   0.61977   0.62302   0.62557
 Alpha virt. eigenvalues --    0.62779   0.62807   0.63160   0.63748   0.63889
 Alpha virt. eigenvalues --    0.64178   0.64540   0.64756   0.64890   0.65209
 Alpha virt. eigenvalues --    0.65357   0.65499   0.65964   0.66121   0.66398
 Alpha virt. eigenvalues --    0.66684   0.67000   0.67147   0.67594   0.67913
 Alpha virt. eigenvalues --    0.68117   0.68155   0.68863   0.68953   0.69341
 Alpha virt. eigenvalues --    0.69769   0.70097   0.70443   0.70692   0.70926
 Alpha virt. eigenvalues --    0.71400   0.71643   0.71718   0.72443   0.72659
 Alpha virt. eigenvalues --    0.72932   0.73286   0.73634   0.74063   0.74652
 Alpha virt. eigenvalues --    0.74720   0.75040   0.75435   0.76181   0.76537
 Alpha virt. eigenvalues --    0.76940   0.77544   0.77910   0.78438   0.78670
 Alpha virt. eigenvalues --    0.78840   0.79005   0.79401   0.79558   0.79837
 Alpha virt. eigenvalues --    0.80217   0.80416   0.80955   0.81332   0.81385
 Alpha virt. eigenvalues --    0.81665   0.81926   0.82271   0.82717   0.82894
 Alpha virt. eigenvalues --    0.83109   0.83289   0.83992   0.84271   0.84652
 Alpha virt. eigenvalues --    0.84792   0.85176   0.85588   0.86096   0.86522
 Alpha virt. eigenvalues --    0.86899   0.87130   0.87423   0.87692   0.87791
 Alpha virt. eigenvalues --    0.88011   0.88157   0.88273   0.88636   0.88733
 Alpha virt. eigenvalues --    0.89160   0.89387   0.89569   0.89623   0.89954
 Alpha virt. eigenvalues --    0.90147   0.90246   0.90560   0.90895   0.91017
 Alpha virt. eigenvalues --    0.91273   0.91756   0.92224   0.92509   0.92743
 Alpha virt. eigenvalues --    0.93158   0.93509   0.93619   0.94175   0.94512
 Alpha virt. eigenvalues --    0.94750   0.94901   0.95067   0.95435   0.95504
 Alpha virt. eigenvalues --    0.95710   0.96048   0.96507   0.96667   0.96882
 Alpha virt. eigenvalues --    0.97234   0.97459   0.97813   0.98029   0.98403
 Alpha virt. eigenvalues --    0.98609   0.98873   0.99016   0.99409   0.99786
 Alpha virt. eigenvalues --    1.00147   1.00525   1.00561   1.01180   1.01285
 Alpha virt. eigenvalues --    1.01724   1.01939   1.02072   1.02415   1.02782
 Alpha virt. eigenvalues --    1.03253   1.03366   1.03869   1.04166   1.04326
 Alpha virt. eigenvalues --    1.04504   1.04727   1.05609   1.05702   1.05936
 Alpha virt. eigenvalues --    1.06457   1.06843   1.07424   1.07456   1.08393
 Alpha virt. eigenvalues --    1.08589   1.08928   1.09169   1.10269   1.10437
 Alpha virt. eigenvalues --    1.10670   1.10852   1.11221   1.11438   1.11577
 Alpha virt. eigenvalues --    1.12192   1.12410   1.13019   1.13490   1.13698
 Alpha virt. eigenvalues --    1.14725   1.14887   1.15124   1.15399   1.15790
 Alpha virt. eigenvalues --    1.16368   1.16466   1.16778   1.17272   1.17502
 Alpha virt. eigenvalues --    1.17663   1.18207   1.18334   1.19383   1.19671
 Alpha virt. eigenvalues --    1.19876   1.20084   1.20409   1.20578   1.21097
 Alpha virt. eigenvalues --    1.21634   1.21866   1.22456   1.22701   1.23299
 Alpha virt. eigenvalues --    1.24230   1.24604   1.24942   1.25236   1.25688
 Alpha virt. eigenvalues --    1.26248   1.26666   1.26927   1.27597   1.27903
 Alpha virt. eigenvalues --    1.28054   1.28641   1.29144   1.29401   1.29583
 Alpha virt. eigenvalues --    1.30022   1.30371   1.30655   1.31118   1.31612
 Alpha virt. eigenvalues --    1.32078   1.32456   1.32974   1.33228   1.33656
 Alpha virt. eigenvalues --    1.33923   1.34860   1.35033   1.35166   1.35527
 Alpha virt. eigenvalues --    1.36040   1.36470   1.37540   1.37736   1.38027
 Alpha virt. eigenvalues --    1.38192   1.38745   1.39289   1.39703   1.39905
 Alpha virt. eigenvalues --    1.40232   1.40431   1.40600   1.40750   1.41119
 Alpha virt. eigenvalues --    1.41473   1.41616   1.42012   1.42242   1.42617
 Alpha virt. eigenvalues --    1.42922   1.43230   1.43494   1.43797   1.44221
 Alpha virt. eigenvalues --    1.44501   1.44779   1.45101   1.45593   1.45731
 Alpha virt. eigenvalues --    1.45885   1.46436   1.46755   1.47227   1.47360
 Alpha virt. eigenvalues --    1.47877   1.48489   1.48562   1.49360   1.49431
 Alpha virt. eigenvalues --    1.49754   1.49972   1.50340   1.50576   1.51493
 Alpha virt. eigenvalues --    1.51573   1.52135   1.52739   1.53483   1.54002
 Alpha virt. eigenvalues --    1.54284   1.54756   1.54907   1.55423   1.56365
 Alpha virt. eigenvalues --    1.57129   1.57879   1.58451   1.58876   1.59523
 Alpha virt. eigenvalues --    1.60064   1.60752   1.61192   1.62234   1.62754
 Alpha virt. eigenvalues --    1.63299   1.64154   1.64535   1.65056   1.65722
 Alpha virt. eigenvalues --    1.66141   1.67362   1.67513   1.67946   1.68878
 Alpha virt. eigenvalues --    1.69139   1.69853   1.70879   1.71027   1.71563
 Alpha virt. eigenvalues --    1.72021   1.72558   1.73265   1.74119   1.74229
 Alpha virt. eigenvalues --    1.74621   1.75067   1.75410   1.75668   1.75911
 Alpha virt. eigenvalues --    1.76134   1.76762   1.77280   1.77469   1.77767
 Alpha virt. eigenvalues --    1.78053   1.78299   1.78837   1.78913   1.79281
 Alpha virt. eigenvalues --    1.79662   1.79915   1.80003   1.80387   1.80493
 Alpha virt. eigenvalues --    1.80924   1.80968   1.81153   1.81680   1.82124
 Alpha virt. eigenvalues --    1.82287   1.82719   1.82864   1.83090   1.83270
 Alpha virt. eigenvalues --    1.83545   1.83716   1.84064   1.84223   1.84477
 Alpha virt. eigenvalues --    1.84925   1.85362   1.85642   1.85751   1.86059
 Alpha virt. eigenvalues --    1.86214   1.86581   1.86911   1.87098   1.87318
 Alpha virt. eigenvalues --    1.87580   1.87734   1.88048   1.88075   1.88561
 Alpha virt. eigenvalues --    1.88771   1.89060   1.89693   1.89857   1.90063
 Alpha virt. eigenvalues --    1.90165   1.90414   1.90668   1.90715   1.91258
 Alpha virt. eigenvalues --    1.91613   1.91844   1.92098   1.92671   1.92890
 Alpha virt. eigenvalues --    1.93210   1.93641   1.93925   1.94180   1.94358
 Alpha virt. eigenvalues --    1.94695   1.95091   1.95991   1.96107   1.96232
 Alpha virt. eigenvalues --    1.96809   1.96952   1.97409   1.98268   1.98594
 Alpha virt. eigenvalues --    1.99336   1.99632   1.99969   2.00192   2.00376
 Alpha virt. eigenvalues --    2.00667   2.01040   2.01280   2.01768   2.02329
 Alpha virt. eigenvalues --    2.02807   2.03276   2.03707   2.03933   2.04025
 Alpha virt. eigenvalues --    2.04229   2.04909   2.05027   2.05406   2.05580
 Alpha virt. eigenvalues --    2.05757   2.06100   2.06686   2.07046   2.07150
 Alpha virt. eigenvalues --    2.07362   2.07511   2.08007   2.08064   2.08172
 Alpha virt. eigenvalues --    2.08641   2.08846   2.09303   2.09448   2.09573
 Alpha virt. eigenvalues --    2.09925   2.10311   2.10593   2.10880   2.11333
 Alpha virt. eigenvalues --    2.11586   2.11696   2.11838   2.11938   2.12010
 Alpha virt. eigenvalues --    2.12360   2.12713   2.13032   2.13282   2.13572
 Alpha virt. eigenvalues --    2.14290   2.14515   2.14583   2.14939   2.15186
 Alpha virt. eigenvalues --    2.15337   2.15566   2.16315   2.16584   2.16952
 Alpha virt. eigenvalues --    2.17216   2.17401   2.17591   2.17732   2.17795
 Alpha virt. eigenvalues --    2.18365   2.18684   2.18771   2.19065   2.19473
 Alpha virt. eigenvalues --    2.19753   2.20001   2.20451   2.20804   2.20974
 Alpha virt. eigenvalues --    2.21310   2.21967   2.22667   2.22779   2.23074
 Alpha virt. eigenvalues --    2.23841   2.24170   2.24682   2.24869   2.25280
 Alpha virt. eigenvalues --    2.25621   2.25838   2.26032   2.26761   2.27087
 Alpha virt. eigenvalues --    2.27512   2.27734   2.27986   2.28366   2.29108
 Alpha virt. eigenvalues --    2.29754   2.30073   2.30170   2.30559   2.30974
 Alpha virt. eigenvalues --    2.31771   2.32000   2.32176   2.32697   2.32852
 Alpha virt. eigenvalues --    2.33361   2.33590   2.34498   2.34754   2.35274
 Alpha virt. eigenvalues --    2.35299   2.35869   2.36436   2.36835   2.37024
 Alpha virt. eigenvalues --    2.37458   2.38248   2.38770   2.39634   2.39771
 Alpha virt. eigenvalues --    2.39932   2.40286   2.40411   2.40934   2.41479
 Alpha virt. eigenvalues --    2.41603   2.41730   2.41901   2.42234   2.42462
 Alpha virt. eigenvalues --    2.42748   2.42950   2.43300   2.43871   2.44157
 Alpha virt. eigenvalues --    2.44328   2.45152   2.45522   2.45925   2.46396
 Alpha virt. eigenvalues --    2.46800   2.47000   2.47429   2.48129   2.48433
 Alpha virt. eigenvalues --    2.48589   2.49084   2.49212   2.49454   2.49597
 Alpha virt. eigenvalues --    2.49983   2.50126   2.51257   2.51611   2.52190
 Alpha virt. eigenvalues --    2.52386   2.52817   2.53315   2.53564   2.54310
 Alpha virt. eigenvalues --    2.54743   2.55273   2.55729   2.55864   2.56032
 Alpha virt. eigenvalues --    2.56928   2.57152   2.57579   2.58360   2.59191
 Alpha virt. eigenvalues --    2.59450   2.59571   2.60089   2.60313   2.60524
 Alpha virt. eigenvalues --    2.60929   2.61355   2.61569   2.62057   2.62178
 Alpha virt. eigenvalues --    2.62726   2.62755   2.63116   2.64270   2.64481
 Alpha virt. eigenvalues --    2.64702   2.64945   2.65340   2.65748   2.66039
 Alpha virt. eigenvalues --    2.66064   2.66599   2.66923   2.67243   2.67777
 Alpha virt. eigenvalues --    2.68003   2.68364   2.68735   2.69170   2.69604
 Alpha virt. eigenvalues --    2.69761   2.70333   2.70697   2.71034   2.71337
 Alpha virt. eigenvalues --    2.72077   2.72111   2.72274   2.72780   2.73259
 Alpha virt. eigenvalues --    2.73588   2.74204   2.74514   2.74542   2.75095
 Alpha virt. eigenvalues --    2.75456   2.75838   2.76149   2.76505   2.76827
 Alpha virt. eigenvalues --    2.77578   2.78027   2.78949   2.79221   2.79300
 Alpha virt. eigenvalues --    2.80150   2.80719   2.81189   2.81491   2.81820
 Alpha virt. eigenvalues --    2.82102   2.82543   2.82780   2.82944   2.83207
 Alpha virt. eigenvalues --    2.83515   2.83923   2.84152   2.84607   2.85068
 Alpha virt. eigenvalues --    2.86214   2.86389   2.86561   2.86933   2.87349
 Alpha virt. eigenvalues --    2.87615   2.87910   2.87988   2.88273   2.88766
 Alpha virt. eigenvalues --    2.89019   2.89547   2.89645   2.90104   2.90416
 Alpha virt. eigenvalues --    2.90707   2.90846   2.91418   2.92184   2.92318
 Alpha virt. eigenvalues --    2.92638   2.93702   2.94051   2.94261   2.95076
 Alpha virt. eigenvalues --    2.95506   2.95778   2.95897   2.97217   2.97742
 Alpha virt. eigenvalues --    2.99600   3.00994   3.01705   3.01840   3.02655
 Alpha virt. eigenvalues --    3.04495   3.04873   3.05748   3.07357   3.07802
 Alpha virt. eigenvalues --    3.09026   3.09396   3.09602   3.10072   3.10345
 Alpha virt. eigenvalues --    3.11122   3.12558   3.12909   3.13675   3.14339
 Alpha virt. eigenvalues --    3.15014   3.15488   3.17702   3.17801   3.18345
 Alpha virt. eigenvalues --    3.18654   3.19777   3.20738   3.20924   3.21766
 Alpha virt. eigenvalues --    3.22180   3.22497   3.22617   3.22781   3.24231
 Alpha virt. eigenvalues --    3.24573   3.25542   3.25668   3.26302   3.27420
 Alpha virt. eigenvalues --    3.27424   3.27715   3.29466   3.29587   3.29855
 Alpha virt. eigenvalues --    3.30821   3.31132   3.31916   3.32341   3.32965
 Alpha virt. eigenvalues --    3.33964   3.37709   3.38493   3.40022   3.40319
 Alpha virt. eigenvalues --    3.40832   3.42352   3.43917   3.44628   3.44765
 Alpha virt. eigenvalues --    3.45156   3.45340   3.45714   3.46114   3.46208
 Alpha virt. eigenvalues --    3.46437   3.46482   3.47143   3.47748   3.47911
 Alpha virt. eigenvalues --    3.48447   3.49033   3.49498   3.49862   3.49995
 Alpha virt. eigenvalues --    3.51486   3.53504   3.58005   3.60328   3.64549
 Alpha virt. eigenvalues --    3.68531   3.68786   3.73388   3.74167   3.74723
 Alpha virt. eigenvalues --    3.78450   3.90759   3.94764   4.01587   4.05717
 Alpha virt. eigenvalues --    4.11282   4.12971   4.17158   4.17868   4.19541
 Alpha virt. eigenvalues --    4.19664   4.19968   4.20670   4.22309   4.22629
 Alpha virt. eigenvalues --    4.23411   4.24372   4.25798   4.26253   4.26497
 Alpha virt. eigenvalues --    4.28814   4.29655   4.31461   4.35041   4.36447
 Alpha virt. eigenvalues --    4.37915   4.38385   4.39967   4.40464   4.41679
 Alpha virt. eigenvalues --    4.42040   4.44119   4.45226   4.46365   4.47298
 Alpha virt. eigenvalues --    4.48329   4.50054   4.50992   4.51708   4.53001
 Alpha virt. eigenvalues --    4.55300   4.56286   4.57126   4.58565   4.61364
 Alpha virt. eigenvalues --    4.61955   4.62944   4.63472   4.66148   4.68188
 Alpha virt. eigenvalues --    4.68983   4.73513   4.77739   4.81329   4.84129
 Alpha virt. eigenvalues --    4.86135   4.87435   4.89796   4.91605   4.96682
 Alpha virt. eigenvalues --    4.98977   5.00516   5.33867   5.43581   5.76390
          Condensed to atoms (all electrons):
 Mulliken charges:
               1
     1  O   -0.515486
     2  N   -0.563188
     3  O   -0.622967
     4  O   -0.587074
     5  C   -0.309967
     6  N    0.389221
     7  C    0.178886
     8  C    0.645475
     9  C    0.034251
    10  C   -0.205925
    11  C    0.624852
    12  C   -0.157654
    13  C   -0.116303
    14  C   -0.136029
    15  C    0.376254
    16  O   -0.393885
    17  O   -0.360917
    18  H    0.358519
    19  H    0.373557
    20  H    0.454685
    21  H    0.147628
    22  H    0.123560
    23  H    0.139926
    24  H    0.166423
    25  H    0.167838
    26  O   -0.642865
    27  O   -0.623929
    28  C   -0.403122
    29  O   -0.626837
    30  C   -0.390873
    31  C   -0.407879
    32  O   -0.661686
    33  C   -0.396308
    34  C   -0.414172
    35  C   -0.391286
    36  C   -0.187139
    37  C    0.133737
    38  C   -0.146216
    39  C   -0.187226
    40  C    0.084222
    41  C    0.139610
    42  C   -0.033351
    43  C    0.218409
    44  C   -0.151925
    45  C    0.078887
    46  C   -0.210775
    47  C    0.094192
    48  C    0.028123
    49  C   -0.155071
    50  C   -0.005137
    51  C    0.216828
    52  C   -0.265542
    53  C    0.004289
    54  C   -0.147160
    55  C   -0.052768
    56  C    0.025386
    57  C   -0.201180
    58  C   -0.143199
    59  C    0.105244
    60  C   -0.202896
    61  C    0.093616
    62  C    0.100532
    63  C   -0.207827
    64  C   -0.266305
    65  P    1.310631
    66  H    0.395937
    67  H    0.140679
    68  H    0.118964
    69  H    0.127898
    70  H    0.123356
    71  H    0.126090
    72  H    0.157498
    73  H    0.135218
    74  H    0.138035
    75  H    0.129243
    76  H    0.163708
    77  H    0.117648
    78  H    0.128085
    79  H    0.120530
    80  H    0.134694
    81  H    0.161409
    82  H    0.114876
    83  H    0.142138
    84  H    0.117165
    85  H    0.077407
    86  H    0.122854
    87  H    0.103630
    88  H    0.137425
    89  H    0.116195
    90  H    0.126488
    91  H    0.137138
    92  H    0.134242
    93  H    0.120392
    94  H    0.099410
    95  H    0.126607
    96  H    0.096762
    97  H    0.116074
    98  H    0.133805
    99  H    0.140415
   100  H    0.133746
   101  H    0.182865
   102  O   -0.539635
   103  C   -0.040184
   104  H    0.188126
   105  H    0.162489
   106  C    0.516812
   107  C    0.810134
   108  F   -0.286058
   109  F   -0.270811
   110  F   -0.241760
   111  F   -0.262196
   112  F   -0.258257
 Sum of Mulliken charges =  -0.00000
 Mulliken charges with hydrogens summed into heavy atoms:
               1
     1  O   -0.156967
     2  N   -0.189631
     3  O   -0.622967
     4  O   -0.132389
     5  C    0.101147
     6  N    0.389221
     7  C    0.178886
     8  C    0.645475
     9  C    0.034251
    10  C   -0.205925
    11  C    0.624852
    12  C    0.008769
    13  C    0.066561
    14  C    0.031809
    15  C    0.376254
    16  O   -0.393885
    17  O   -0.360917
    26  O   -0.246928
    27  O   -0.623929
    28  C   -0.015581
    29  O   -0.626837
    30  C    0.016071
    31  C   -0.005383
    32  O   -0.661686
    33  C    0.013133
    34  C    0.002462
    35  C   -0.017107
    36  C   -0.109732
    37  C    0.133737
    38  C   -0.023361
    39  C   -0.083596
    40  C    0.084222
    41  C    0.139610
    42  C   -0.033351
    43  C    0.218409
    44  C   -0.151925
    45  C    0.078887
    46  C    0.042846
    47  C    0.094192
    48  C    0.028123
    49  C   -0.028583
    50  C   -0.005137
    51  C    0.216828
    52  C    0.005838
    53  C    0.004289
    54  C   -0.026768
    55  C   -0.052768
    56  C    0.025386
    57  C   -0.101770
    58  C   -0.016592
    59  C    0.105244
    60  C   -0.106134
    61  C    0.093616
    62  C    0.100532
    63  C    0.042052
    64  C    0.007856
    65  P    1.310631
   102  O   -0.539635
   103  C    0.310432
   106  C    0.516812
   107  C    0.810134
   108  F   -0.286058
   109  F   -0.270811
   110  F   -0.241760
   111  F   -0.262196
   112  F   -0.258257
 APT charges:
               1
     1  O   -1.112298
     2  N   -0.233695
     3  O    0.040210
     4  O    0.122276
     5  C   -1.219953
     6  N   -0.671884
     7  C    0.460797
     8  C   -0.054379
     9  C   -0.467901
    10  C   -0.592363
    11  C   -0.002458
    12  C   -0.549433
    13  C   -0.401267
    14  C   -0.406834
    15  C   -0.142207
    16  O    0.604282
    17  O   -0.220862
    18  H    1.419186
    19  H   -0.002211
    20  H    0.417327
    21  H    0.635173
    22  H    0.622569
    23  H   -0.027814
    24  H   -0.131021
    25  H    0.896261
    26  O   -0.288736
    27  O   -0.271185
    28  C   -1.544339
    29  O   -0.334191
    30  C   -1.211480
    31  C   -1.605064
    32  O   -0.791436
    33  C   -1.145147
    34  C   -1.008735
    35  C   -1.129400
    36  C   -0.487355
    37  C   -0.015256
    38  C   -0.481429
    39  C   -0.423916
    40  C    0.313689
    41  C   -0.429612
    42  C   -0.459906
    43  C   -0.255380
    44  C   -0.054176
    45  C   -0.148570
    46  C   -0.860912
    47  C   -0.217915
    48  C    0.332532
    49  C   -0.497428
    50  C   -0.473258
    51  C   -0.513782
    52  C   -1.743867
    53  C   -0.381365
    54  C   -0.402758
    55  C   -0.550171
    56  C    0.368773
    57  C   -0.496055
    58  C   -0.422504
    59  C   -0.365241
    60  C   -0.444406
    61  C   -0.078658
    62  C    0.410408
    63  C   -0.795469
    64  C   -1.481745
    65  P    0.610657
    66  H    0.341076
    67  H    0.883831
    68  H    0.558677
    69  H    0.186406
    70  H    0.850602
    71  H    0.351162
    72  H    0.088986
    73  H    1.032888
    74  H    0.066947
    75  H    0.610850
    76  H   -0.185992
    77  H    0.531115
    78  H    0.881726
    79  H    0.696591
    80  H    0.587683
    81  H   -0.206920
    82  H    0.340264
    83  H    0.782057
    84  H    0.014703
    85  H    0.509375
    86  H    0.954433
    87  H    0.689576
    88  H    0.124290
    89  H    0.745334
    90  H    0.668074
    91  H    0.842446
    92  H    0.798770
    93  H    1.240834
    94  H    0.553570
    95  H    0.921262
    96  H    0.771451
    97  H    0.893204
    98  H   -0.023498
    99  H    0.519844
   100  H    0.903997
   101  H    1.301337
   102  O   -0.357823
   103  C    0.030797
   104  H   -0.065812
   105  H    0.287058
   106  C   -0.101541
   107  C    0.058557
   108  F    0.206718
   109  F    0.030616
   110  F   -0.395277
   111  F   -0.188786
   112  F    0.461830
 Sum of APT charges =  -0.00000
 APT charges with hydrogens summed into heavy atoms:
               1
     1  O    0.306888
     2  N   -0.235906
     3  O    0.040210
     4  O    0.539602
     5  C    0.009975
     6  N   -0.671884
     7  C    0.460797
     8  C   -0.054379
     9  C   -0.467901
    10  C   -0.592363
    11  C   -0.002458
    12  C   -0.680454
    13  C    0.900070
    14  C    0.489427
    15  C   -0.142207
    16  O    0.604282
    17  O   -0.220862
    26  O    0.052340
    27  O   -0.271185
    28  C    0.084575
    29  O   -0.334191
    30  C    0.079270
    31  C    0.105621
    32  O   -0.791436
    33  C    0.081702
    34  C    0.068619
    35  C    0.007624
    36  C    0.022020
    37  C   -0.015256
    38  C    0.473004
    39  C    0.265661
    40  C    0.313689
    41  C   -0.429612
    42  C   -0.459906
[...]
 Alpha virt. eigenvalues --    1.27678   1.27892   1.28562   1.28695   1.29051
 Alpha virt. eigenvalues --    1.29652   1.29961   1.30471   1.30883   1.31003
 Alpha virt. eigenvalues --    1.31375   1.31650   1.32405   1.32677   1.32883
 Alpha virt. eigenvalues --    1.33245   1.33652   1.34491   1.35004   1.35322
 Alpha virt. eigenvalues --    1.35890   1.36374   1.36516   1.37404   1.38001
 Alpha virt. eigenvalues --    1.38183   1.38657   1.38846   1.39247   1.39844
 Alpha virt. eigenvalues --    1.40082   1.40165   1.40228   1.40505   1.40872
 Alpha virt. eigenvalues --    1.41251   1.41633   1.41736   1.41837   1.42039
 Alpha virt. eigenvalues --    1.42750   1.42887   1.43098   1.43433   1.43718
 Alpha virt. eigenvalues --    1.44165   1.44514   1.45088   1.45214   1.45314
 Alpha virt. eigenvalues --    1.45539   1.45747   1.46031   1.46700   1.46796
 Alpha virt. eigenvalues --    1.47067   1.47693   1.47908   1.48240   1.48661
 Alpha virt. eigenvalues --    1.49289   1.49603   1.49874   1.50237   1.50878
 Alpha virt. eigenvalues --    1.51239   1.51774   1.52240   1.52902   1.53313
 Alpha virt. eigenvalues --    1.53993   1.54512   1.54741   1.55189   1.55593
 Alpha virt. eigenvalues --    1.56071   1.56593   1.57290   1.58217   1.58698
 Alpha virt. eigenvalues --    1.59588   1.60014   1.61434   1.61782   1.62639
 Alpha virt. eigenvalues --    1.62819   1.63561   1.64478   1.64639   1.65031
 Alpha virt. eigenvalues --    1.65918   1.66702   1.67090   1.67246   1.68542
 Alpha virt. eigenvalues --    1.69249   1.69510   1.70242   1.70839   1.70971
 Alpha virt. eigenvalues --    1.71731   1.71866   1.72958   1.73600   1.74055
 Alpha virt. eigenvalues --    1.74561   1.74806   1.74930   1.75332   1.75554
 Alpha virt. eigenvalues --    1.75943   1.76138   1.76709   1.76926   1.77127
 Alpha virt. eigenvalues --    1.77413   1.77689   1.78038   1.78111   1.78810
 Alpha virt. eigenvalues --    1.79186   1.79277   1.79584   1.79632   1.80201
 Alpha virt. eigenvalues --    1.80284   1.80612   1.80767   1.81229   1.81719
 Alpha virt. eigenvalues --    1.81846   1.82071   1.82658   1.82884   1.83148
 Alpha virt. eigenvalues --    1.83196   1.83479   1.83707   1.83959   1.84303
 Alpha virt. eigenvalues --    1.84975   1.85162   1.85418   1.85663   1.85861
 Alpha virt. eigenvalues --    1.86313   1.86432   1.86603   1.86631   1.86898
 Alpha virt. eigenvalues --    1.87300   1.87591   1.87761   1.88321   1.88341
 Alpha virt. eigenvalues --    1.88514   1.89052   1.89198   1.89388   1.89640
 Alpha virt. eigenvalues --    1.90172   1.90238   1.90348   1.90420   1.91110
 Alpha virt. eigenvalues --    1.91327   1.91897   1.92179   1.92619   1.92905
 Alpha virt. eigenvalues --    1.93163   1.93448   1.93761   1.93932   1.94355
 Alpha virt. eigenvalues --    1.94818   1.95118   1.95594   1.95734   1.96207
 Alpha virt. eigenvalues --    1.96571   1.97279   1.97803   1.97992   1.98453
 Alpha virt. eigenvalues --    1.99004   1.99254   1.99579   1.99786   1.99957
 Alpha virt. eigenvalues --    2.00565   2.00970   2.01385   2.01753   2.02188
 Alpha virt. eigenvalues --    2.02452   2.02789   2.03096   2.03319   2.03843
 Alpha virt. eigenvalues --    2.04302   2.04517   2.04784   2.05364   2.05382
 Alpha virt. eigenvalues --    2.06046   2.06332   2.06679   2.06905   2.07152
 Alpha virt. eigenvalues --    2.07315   2.07494   2.07591   2.07951   2.08100
 Alpha virt. eigenvalues --    2.08387   2.08853   2.09108   2.09501   2.09746
 Alpha virt. eigenvalues --    2.09897   2.10402   2.10609   2.10780   2.11244
 Alpha virt. eigenvalues --    2.11357   2.11454   2.11693   2.11788   2.12177
 Alpha virt. eigenvalues --    2.12462   2.12544   2.12780   2.13265   2.13461
 Alpha virt. eigenvalues --    2.13900   2.14039   2.14483   2.14816   2.15086
 Alpha virt. eigenvalues --    2.15459   2.15622   2.15783   2.16205   2.16458
 Alpha virt. eigenvalues --    2.16950   2.17141   2.17400   2.17834   2.18068
 Alpha virt. eigenvalues --    2.18313   2.18456   2.18656   2.18900   2.19245
 Alpha virt. eigenvalues --    2.19327   2.19806   2.20507   2.21042   2.21347
 Alpha virt. eigenvalues --    2.21603   2.22024   2.22409   2.22623   2.23380
 Alpha virt. eigenvalues --    2.23672   2.24345   2.24545   2.24627   2.25183
 Alpha virt. eigenvalues --    2.25594   2.25660   2.26040   2.26545   2.27124
 Alpha virt. eigenvalues --    2.27189   2.27628   2.27814   2.27973   2.28917
 Alpha virt. eigenvalues --    2.29004   2.29344   2.29624   2.30953   2.31102
 Alpha virt. eigenvalues --    2.31341   2.31834   2.32047   2.32171   2.33014
 Alpha virt. eigenvalues --    2.33544   2.33915   2.34214   2.34853   2.35448
 Alpha virt. eigenvalues --    2.35830   2.36240   2.36367   2.36667   2.37196
 Alpha virt. eigenvalues --    2.37834   2.38603   2.38708   2.39036   2.39229
 Alpha virt. eigenvalues --    2.39491   2.39814   2.40172   2.40408   2.40686
 Alpha virt. eigenvalues --    2.41009   2.41510   2.41594   2.41825   2.42022
 Alpha virt. eigenvalues --    2.42233   2.42502   2.43301   2.43546   2.43862
 Alpha virt. eigenvalues --    2.44336   2.44491   2.45491   2.45676   2.45868
 Alpha virt. eigenvalues --    2.46629   2.47166   2.47316   2.47715   2.48175
 Alpha virt. eigenvalues --    2.48256   2.48675   2.49073   2.49415   2.49970
 Alpha virt. eigenvalues --    2.50094   2.50757   2.51483   2.51938   2.52263
 Alpha virt. eigenvalues --    2.52753   2.53601   2.53674   2.54742   2.54895
 Alpha virt. eigenvalues --    2.55015   2.55221   2.55695   2.55924   2.56507
 Alpha virt. eigenvalues --    2.57561   2.57863   2.58406   2.59002   2.59375
 Alpha virt. eigenvalues --    2.59700   2.59961   2.60339   2.60643   2.60747
 Alpha virt. eigenvalues --    2.60918   2.61222   2.61437   2.62066   2.62281
 Alpha virt. eigenvalues --    2.62486   2.62713   2.63858   2.64209   2.64531
 Alpha virt. eigenvalues --    2.64883   2.65324   2.65826   2.66131   2.66384
 Alpha virt. eigenvalues --    2.66773   2.67029   2.67271   2.67354   2.67708
 Alpha virt. eigenvalues --    2.67909   2.68572   2.68818   2.68900   2.69194
 Alpha virt. eigenvalues --    2.69410   2.69654   2.70156   2.70756   2.70841
 Alpha virt. eigenvalues --    2.71384   2.71526   2.72500   2.72750   2.72990
 Alpha virt. eigenvalues --    2.73037   2.74067   2.74191   2.74453   2.74809
 Alpha virt. eigenvalues --    2.75133   2.75516   2.76276   2.76377   2.76884
 Alpha virt. eigenvalues --    2.77287   2.77679   2.78244   2.78330   2.79327
 Alpha virt. eigenvalues --    2.79740   2.80637   2.80736   2.81054   2.81331
 Alpha virt. eigenvalues --    2.81582   2.82105   2.82164   2.82389   2.82841
 Alpha virt. eigenvalues --    2.83221   2.83368   2.83644   2.84327   2.84480
 Alpha virt. eigenvalues --    2.84817   2.85667   2.85755   2.86542   2.86850
 Alpha virt. eigenvalues --    2.87327   2.87855   2.87992   2.88369   2.88525
 Alpha virt. eigenvalues --    2.89017   2.89471   2.89593   2.89781   2.90120
 Alpha virt. eigenvalues --    2.90695   2.90784   2.91440   2.91685   2.92191
 Alpha virt. eigenvalues --    2.92601   2.93031   2.94014   2.94293   2.94772
 Alpha virt. eigenvalues --    2.95319   2.95891   2.96401   2.97038   2.98718
 Alpha virt. eigenvalues --    2.99786   3.00826   3.01180   3.01729   3.02029
 Alpha virt. eigenvalues --    3.03705   3.04168   3.05092   3.06748   3.08057
 Alpha virt. eigenvalues --    3.08575   3.08816   3.09191   3.09618   3.10870
 Alpha virt. eigenvalues --    3.11559   3.12177   3.12891   3.13071   3.13937
 Alpha virt. eigenvalues --    3.14598   3.16149   3.16883   3.17590   3.18603
 Alpha virt. eigenvalues --    3.19414   3.19908   3.20417   3.20771   3.21700
 Alpha virt. eigenvalues --    3.21785   3.21868   3.22910   3.23671   3.24113
 Alpha virt. eigenvalues --    3.25121   3.25371   3.25755   3.26343   3.26854
 Alpha virt. eigenvalues --    3.27119   3.28863   3.29391   3.29844   3.30104
 Alpha virt. eigenvalues --    3.30186   3.30584   3.31685   3.32100   3.32399
 Alpha virt. eigenvalues --    3.33235   3.36951   3.39709   3.40725   3.41388
 Alpha virt. eigenvalues --    3.41685   3.42737   3.44162   3.44625   3.44789
 Alpha virt. eigenvalues --    3.44908   3.45151   3.45391   3.45602   3.45789
 Alpha virt. eigenvalues --    3.45997   3.46544   3.46907   3.47300   3.47964
 Alpha virt. eigenvalues --    3.48263   3.48892   3.49165   3.50034   3.50780
 Alpha virt. eigenvalues --    3.52649   3.53452   3.57894   3.59766   3.62908
 Alpha virt. eigenvalues --    3.68057   3.68459   3.73410   3.73893   3.74521
 Alpha virt. eigenvalues --    3.79323   3.91495   3.95562   4.01029   4.02371
 Alpha virt. eigenvalues --    4.08026   4.11571   4.16919   4.17199   4.18798
 Alpha virt. eigenvalues --    4.19030   4.20269   4.20763   4.21847   4.22146
 Alpha virt. eigenvalues --    4.22424   4.24087   4.25423   4.25655   4.25989
 Alpha virt. eigenvalues --    4.28588   4.29032   4.30406   4.33362   4.35272
 Alpha virt. eigenvalues --    4.37561   4.38358   4.39645   4.40524   4.41230
 Alpha virt. eigenvalues --    4.41378   4.43768   4.44797   4.45059   4.46832
 Alpha virt. eigenvalues --    4.47418   4.48469   4.49225   4.50479   4.52334
 Alpha virt. eigenvalues --    4.54712   4.56130   4.57645   4.57949   4.59661
 Alpha virt. eigenvalues --    4.60874   4.62498   4.63045   4.65318   4.68386
 Alpha virt. eigenvalues --    4.69398   4.72338   4.77549   4.79335   4.83164
 Alpha virt. eigenvalues --    4.85388   4.86515   4.89078   4.91959   4.95424
 Alpha virt. eigenvalues --    4.98062   5.01186   5.33071   5.43175   5.77533
          Condensed to atoms (all electrons):
 Mulliken charges:
               1
     1  O   -0.553052
     2  N   -0.620775
     3  O   -0.603980
     4  O   -0.614211
     5  C   -0.342009
     6  N    0.386929
     7  C    0.175579
     8  C    0.569030
     9  C    0.022198
    10  C   -0.009406
    11  C    0.633000
    12  C   -0.156834
    13  C   -0.115996
    14  C   -0.144079
    15  C    0.371946
    16  O   -0.396359
    17  O   -0.367224
    18  H    0.357571
    19  H    0.347881
    20  H    0.413477
    21  H    0.142599
    22  H    0.143690
    23  H    0.129472
    24  H    0.148038
    25  H    0.166463
    26  O   -0.600466
    27  O   -0.615566
    28  C   -0.406209
    29  O   -0.616952
    30  C   -0.390265
    31  C   -0.408548
    32  O   -0.615978
    33  C   -0.398658
    34  C   -0.414637
    35  C   -0.392628
    36  C   -0.181304
    37  C    0.136999
    38  C   -0.143029
    39  C   -0.185915
    40  C    0.090938
    41  C    0.139992
    42  C   -0.037746
    43  C    0.200716
    44  C   -0.152104
    45  C    0.075790
    46  C   -0.211030
    47  C    0.092666
    48  C    0.026939
    49  C   -0.154483
    50  C   -0.000953
    51  C    0.203716
    52  C   -0.266173
    53  C    0.009409
    54  C   -0.144769
    55  C   -0.055825
    56  C    0.024795
    57  C   -0.198249
    58  C   -0.143903
    59  C    0.104794
    60  C   -0.199604
    61  C    0.088754
    62  C    0.100283
    63  C   -0.207957
    64  C   -0.266473
    65  P    1.317047
    66  H    0.383356
    67  H    0.133809
    68  H    0.122890
    69  H    0.138407
    70  H    0.127964
    71  H    0.125053
    72  H    0.147809
    73  H    0.134958
    74  H    0.142893
    75  H    0.131501
    76  H    0.152964
    77  H    0.125237
    78  H    0.132775
    79  H    0.124397
    80  H    0.134457
    81  H    0.159813
    82  H    0.121919
    83  H    0.142027
    84  H    0.112381
    85  H    0.082228
    86  H    0.126723
    87  H    0.105056
    88  H    0.138060
    89  H    0.119213
    90  H    0.131182
    91  H    0.139838
    92  H    0.136982
    93  H    0.124540
    94  H    0.102571
    95  H    0.130241
    96  H    0.101369
    97  H    0.118292
    98  H    0.134868
    99  H    0.143435
   100  H    0.135770
   101  H    0.177968
   102  O   -0.542535
   103  C   -0.030952
   104  H    0.179179
   105  H    0.160083
   106  C    0.517286
   107  C    0.808534
   108  F   -0.285506
   109  F   -0.270501
   110  F   -0.245846
   111  F   -0.262481
   112  F   -0.257566
 Sum of Mulliken charges =  -0.00000
 Mulliken charges with hydrogens summed into heavy atoms:
               1
     1  O   -0.195482
     2  N   -0.272894
     3  O   -0.190503
     4  O   -0.614211
     5  C    0.073751
     6  N    0.386929
     7  C    0.175579
     8  C    0.569030
     9  C    0.022198
    10  C   -0.009406
    11  C    0.633000
    12  C   -0.008796
    13  C    0.061972
    14  C    0.022384
    15  C    0.371946
    16  O   -0.396359
    17  O   -0.367224
    26  O   -0.217110
    27  O   -0.615566
    28  C   -0.011103
    29  O   -0.616952
    30  C    0.010561
    31  C    0.000804
    32  O   -0.615978
    33  C    0.012318
    34  C    0.004030
    35  C   -0.016301
    36  C   -0.099076
    37  C    0.136999
    38  C   -0.016306
    39  C   -0.080859
    40  C    0.090938
    41  C    0.139992
    42  C   -0.037746
    43  C    0.200716
    44  C   -0.152104
    45  C    0.075790
    46  C    0.046243
    47  C    0.092666
    48  C    0.026939
    49  C   -0.023301
    50  C   -0.000953
    51  C    0.203716
    52  C    0.010647
    53  C    0.009409
    54  C   -0.020229
    55  C   -0.055825
    56  C    0.024795
    57  C   -0.095678
    58  C   -0.013662
    59  C    0.104794
    60  C   -0.098235
    61  C    0.088754
    62  C    0.100283
    63  C    0.045202
    64  C    0.012732
    65  P    1.317047
   102  O   -0.542535
   103  C    0.308309
   106  C    0.517286
   107  C    0.808534
   108  F   -0.285506
   109  F   -0.270501
   110  F   -0.245846
   111  F   -0.262481
   112  F   -0.257566
 APT charges:
               1
     1  O   -1.143983
     2  N   -0.142164
     3  O   -0.192885
     4  O    0.342535
     5  C   -1.206508
     6  N   -0.664367
     7  C    0.448838
     8  C    0.399394
     9  C   -0.456626
    10  C   -0.609002
    11  C   -0.398127
    12  C   -0.553968
    13  C   -0.398142
    14  C   -0.399299
    15  C   -0.160510
    16  O    0.601459
    17  O   -0.235684
    18  H    1.358257
    19  H   -0.074361
    20  H    0.368429
    21  H    0.629117
    22  H    0.660848
    23  H   -0.053803
    24  H   -0.142028
    25  H    0.905198
    26  O   -0.449581
    27  O   -0.253819
    28  C   -1.530910
    29  O   -0.304577
    30  C   -1.236874
    31  C   -1.602391
    32  O   -0.789183
    33  C   -1.198036
    34  C   -1.010554
    35  C   -1.134131
    36  C   -0.483816
    37  C   -0.002267
    38  C   -0.483101
    39  C   -0.430900
    40  C    0.301887
    41  C   -0.435431
    42  C   -0.452018
    43  C   -0.253685
    44  C   -0.059855
    45  C   -0.129200
    46  C   -0.865378
    47  C   -0.228450
    48  C    0.329199
    49  C   -0.500872
    50  C   -0.478717
    51  C   -0.541047
    52  C   -1.762334
    53  C   -0.386653
    54  C   -0.408730
    55  C   -0.536945
    56  C    0.368856
    57  C   -0.486550
    58  C   -0.423369
    59  C   -0.385517
    60  C   -0.464139
    61  C   -0.043058
    62  C    0.391066
    63  C   -0.803492
    64  C   -1.481158
    65  P    0.643496
    66  H    0.523337
    67  H    0.846733
    68  H    0.608371
    69  H    0.166554
    70  H    0.865460
    71  H    0.344942
    72  H    0.102146
    73  H    1.018811
    74  H    0.038857
    75  H    0.655841
    76  H   -0.162963
    77  H    0.509416
    78  H    0.932033
    79  H    0.706284
    80  H    0.583165
    81  H   -0.209794
    82  H    0.335398
    83  H    0.782698
    84  H    0.023619
    85  H    0.506901
    86  H    0.953983
    87  H    0.698709
    88  H    0.128123
    89  H    0.747009
    90  H    0.667485
    91  H    0.855887
    92  H    0.805088
    93  H    1.260947
    94  H    0.542046
    95  H    0.940144
    96  H    0.791351
    97  H    0.904448
    98  H   -0.025030
    99  H    0.516346
   100  H    0.911522
   101  H    1.291812
   102  O   -0.364271
   103  C    0.027943
   104  H   -0.055690
   105  H    0.278397
   106  C   -0.098344
   107  C    0.057486
   108  F    0.198228
   109  F    0.029915
   110  F   -0.390007
   111  F   -0.185094
   112  F    0.453374
 Sum of APT charges =  -0.00000
 APT charges with hydrogens summed into heavy atoms:
               1
     1  O    0.214274
     2  N   -0.216525
     3  O    0.175544
     4  O    0.342535
     5  C    0.029653
     6  N   -0.664367
     7  C    0.448838
     8  C    0.399394
     9  C   -0.456626
    10  C   -0.609002
    11  C   -0.398127
    12  C   -0.695996
    13  C    0.893670
    14  C    0.505899
    15  C   -0.160510
    16  O    0.601459
    17  O   -0.235684
    26  O    0.073756
    27  O   -0.253819
    28  C    0.090749
    29  O   -0.304577
    30  C    0.075674
    31  C    0.111119
    32  O   -0.789183
    33  C    0.080451
    34  C    0.069101
    35  C    0.007584
    36  C    0.023085
    37  C   -0.002267
    38  C    0.470882
    39  C    0.267808
    40  C    0.301887
    41  C   -0.435431
    42  C   -0.452018
    43  C   -0.253685
    44  C   -0.059855
    45  C   -0.129200
    46  C    0.009754
    47  C   -0.228450
    48  C    0.329199
    49  C    0.166613
    50  C   -0.478717
    51  C   -0.541047
    52  C   -0.101358
    53  C   -0.386653
    54  C    0.852217
    55  C   -0.536945
    56  C    0.368856
    57  C    0.055496
    58  C    0.516775
    59  C   -0.385517
    60  C    0.327211
    61  C   -0.043058
    62  C    0.391066
    63  C    0.075926
    64  C   -0.053290
    65  P    0.643496
   102  O   -0.364271
   103  C    0.250649
   106  C   -0.098344
   107  C    0.057486
   108  F    0.198228
   109  F    0.029915
   110  F   -0.390007
   111  F   -0.185094
   112  F    0.453374
 Electronic spatial extent (au):  <R**2>=          40429.1732
 Charge=              0.0000 electrons
 Dipole moment (field-independent basis, Debye):
    X=              7.5206    Y=              1.4451    Z=             -2.6134  Tot=              8.0919
 Quadrupole moment (field-independent basis, Debye-Ang):
   XX=           -396.8788   YY=           -365.9856   ZZ=           -380.8658
   XY=            -17.8619   XZ=              7.2166   YZ=              8.0598
 Traceless Quadrupole moment (field-independent basis, Debye-Ang):
   XX=            -15.6354   YY=             15.2578   ZZ=              0.3776
   XY=            -17.8619   XZ=              7.2166   YZ=              8.0598
 Octapole moment (field-independent basis, Debye-Ang**2):
  XXX=            207.7275  YYY=           -105.0315  ZZZ=            119.4965  XYY=             63.9695
  XXY=             14.5117  XXZ=           -119.0646  XZZ=              1.8271  YZZ=             29.0161
  YYZ=            -24.1648  XYZ=            -17.3935
 Hexadecapole moment (field-independent basis, Debye-Ang**3):
 XXXX=         -26753.4073 YYYY=         -15810.8411 ZZZZ=         -10334.0154 XXXY=           -649.1480
 XXXZ=            288.7963 YYYX=            284.9580 YYYZ=           -479.5195 ZZZX=           -166.7077
 ZZZY=           -513.1545 XXYY=          -7133.7923 XXZZ=          -6314.6457 YYZZ=          -4315.6414
 XXYZ=             46.8184 YYXZ=            -38.7962 ZZXY=            -12.3717
 N-N= 1.223496568011D+04 E-N=-3.279326677953D+04  KE= 3.530874269892D+03
  Exact polarizability:       0.000       0.000       0.000       0.000       0.000       0.000
 Approx polarizability:     743.749     -20.603     761.924     -37.529     -55.320     597.140
 Leave Link  601 at Wed Nov 16 12:39:56 2022, MaxMem=  8053063680 cpu:               7.4 elap:               0.6
 (Enter /project/chenjingdan/g16/l9999.exe)

 This type of calculation cannot be archived.


 HE WHO LAUGHS LAST PROBABLY DIDN'T GET THE JOKE.
 Job cpu time:       4 days  1 hours 12 minutes  4.3 seconds.
 Elapsed time:       0 days  6 hours  5 minutes 28.5 seconds.
 File lengths (MBytes):  RWF=    986 Int=      0 D2E=      0 Chk=    123 Scr=      1
 Normal termination of Gaussian 16 at Wed Nov 16 12:39:57 2022.
