 Entering Gaussian System, Link 0=g16
 Initial command:
 /project/chenjingdan/g16/l1.exe "/scratch/chenjingdan/scratch/Gau-26436.inp" -scrdir="/scratch/chenjingdan/scratch/"
 Entering Link 1 = /project/chenjingdan/g16/l1.exe PID=     26437.
  
 Copyright (c) 1988-2019, Gaussian, Inc.  All Rights Reserved.
  
 This is part of the Gaussian(R) 16 program.  It is based on
 the Gaussian(R) 09 system (copyright 2009, Gaussian, Inc.),
 the Gaussian(R) 03 system (copyright 2003, Gaussian, Inc.),
 the Gaussian(R) 98 system (copyright 1998, Gaussian, Inc.),
 the Gaussian(R) 94 system (copyright 1995, Gaussian, Inc.),
 the Gaussian 92(TM) system (copyright 1992, Gaussian, Inc.),
 the Gaussian 90(TM) system (copyright 1990, Gaussian, Inc.),
 the Gaussian 88(TM) system (copyright 1988, Gaussian, Inc.),
 the Gaussian 86(TM) system (copyright 1986, Carnegie Mellon
 University), and the Gaussian 82(TM) system (copyright 1983,
 Carnegie Mellon University). Gaussian is a federally registered
 trademark of Gaussian, Inc.
  
 This software contains proprietary and confidential information,
 including trade secrets, belonging to Gaussian, Inc.
  
 This software is provided under written license and may be
 used, copied, transmitted, or stored only in accord with that
 written license.
  
 The following legend is applicable only to US Government
 contracts under FAR:
  
                    RESTRICTED RIGHTS LEGEND
  
 Use, reproduction and disclosure by the US Government is
 subject to restrictions as set forth in subparagraphs (a)
 and (c) of the Commercial Computer Software - Restricted
 Rights clause in FAR 52.227-19.
  
 Gaussian, Inc.
 340 Quinnipiac St., Bldg. 40, Wallingford CT 06492
  
  
 ---------------------------------------------------------------
 Warning -- This program may not be used in any manner that
 competes with the business of Gaussian, Inc. or will provide
 assistance to any competitor of Gaussian, Inc.  The licensee
 of this program is prohibited from giving any competitor of
 Gaussian, Inc. access to this program.  By using this program,
 the user acknowledges that Gaussian, Inc. is engaged in the
 business of creating and licensing software in the field of
 computational chemistry and represents and warrants to the
 licensee that it is not a competitor of Gaussian, Inc. and that
 it will not use this program in any manner prohibited above.
 ---------------------------------------------------------------
  

 Cite this work as:
 Gaussian 16, Revision C.01,
 M. J. Frisch, G. W. Trucks, H. B. Schlegel, G. E. Scuseria, 
 M. A. Robb, J. R. Cheeseman, G. Scalmani, V. Barone, 
 G. A. Petersson, H. Nakatsuji, X. Li, M. Caricato, A. V. Marenich, 
 J. Bloino, B. G. Janesko, R. Gomperts, B. Mennucci, H. P. Hratchian, 
 J. V. Ortiz, A. F. Izmaylov, J. L. Sonnenberg, D. Williams-Young, 
 F. Ding, F. Lipparini, F. Egidi, J. Goings, B. Peng, A. Petrone, 
 T. Henderson, D. Ranasinghe, V. G. Zakrzewski, J. Gao, N. Rega, 
 G. Zheng, W. Liang, M. Hada, M. Ehara, K. Toyota, R. Fukuda, 
 J. Hasegawa, M. Ishida, T. Nakajima, Y. Honda, O. Kitao, H. Nakai, 
 T. Vreven, K. Throssell, J. A. Montgomery, Jr., J. E. Peralta, 
 F. Ogliaro, M. J. Bearpark, J. J. Heyd, E. N. Brothers, K. N. Kudin, 
 V. N. Staroverov, T. A. Keith, R. Kobayashi, J. Normand, 
 K. Raghavachari, A. P. Rendell, J. C. Burant, S. S. Iyengar, 
 J. Tomasi, M. Cossi, J. M. Millam, M. Klene, C. Adamo, R. Cammi, 
 J. W. Ochterski, R. L. Martin, K. Morokuma, O. Farkas, 
 J. B. Foresman, and D. J. Fox, Gaussian, Inc., Wallingford CT, 2019.
 
 ******************************************
 Gaussian 16:  ES64L-G16RevC.01  3-Jul-2019
                15-Nov-2022 
 ******************************************
 %nprocshared=16
 Will use up to   16 processors via shared memory.
 %mem=60GB
 %chk=N2_ts2_invS_irc.chk
 ------------------------------------------------------------
 #p irc=(calcfc,maxpoints=30,lqa,stepsize=8) 6-31g(d,p) m062x
 ------------------------------------------------------------
 1/10=4,18=10,26=3,38=1,39=8,42=30,44=3,45=2,172=1/1,23;
 2/12=2,17=6,18=5,29=1,40=1/2;
 3/5=1,6=6,7=101,11=2,25=1,30=1,71=2,74=-55,140=1/1,2,3;
 4//1;
 5/5=2,38=5/2;
 8/6=4,10=90,11=11/1;
 11/6=1,8=1,9=11,15=111,16=1/1,2,10;
 10/6=1,13=1/2;
 6/7=2,8=2,9=2,10=2,28=1/1;
 7/10=1,25=1/1,2,3,16;
 1/10=4,18=10,26=3,39=8,42=30,44=3,45=2/23(2);
 2/29=1/2;
 99/5=20/99;
 2/29=1/2;
 3/5=1,6=6,7=101,11=2,25=1,30=1,71=2,74=-55,140=1/1,2,3;
 4/5=5,16=3,69=1/1;
 5/5=2,38=5/2;
 8/6=4,10=90,11=11/1;
 11/6=1,8=1,9=11,15=111,16=1/1,2,10;
 10/6=1,13=1/2;
 7/10=1,25=1/1,2,3,16;
 1/18=10,26=3,39=8,42=30,44=3,45=2/23(-8);
 2/29=1/2;
 6/7=2,8=2,9=2,10=2,19=2,28=1/1;
 99/5=20,9=1/99;
 Leave Link    1 at Tue Nov 15 20:24:18 2022, MaxMem=  8053063680 cpu:               1.9 elap:               0.2
 (Enter /project/chenjingdan/g16/l101.exe)
 -----
 TITLE
 -----
 Symbolic Z-matrix:
 Charge =  0 Multiplicity = 1
 O                    -0.78942   5.13579   2.40669 
 N                    -2.03179   2.55699   0.13832 
 O                    -2.69819   4.0177    2.57965 
 O                    -4.14074   2.90951   0.99 
 C                    -0.19335   4.16796  -0.15161 
 N                    -5.37739  -2.32165  -2.41825 
 C                    -4.78906  -1.14216  -1.77394 
 C                    -1.6361    4.21506   1.94719 
 C                    -3.82651   1.1016   -0.50194 
 C                    -1.13927   3.47852   0.82245 
 C                    -3.30181   2.26193   0.25689 
 C                    -5.14654   1.09504  -0.95367 
 C                    -3.45506  -1.14185  -1.3345 
 C                    -2.99297   0.00571  -0.68795 
 C                    -5.61474  -0.03502  -1.60584 
 O                    -4.95153  -3.41127  -2.09665 
 O                    -6.27873  -2.12022  -3.21431 
 H                    -1.17824   5.4913    3.22012 
 H                    -1.47859   1.9411   -0.47547 
 H                    -3.60635   3.45636   1.74062 
 H                     0.27873   3.42502  -0.80355 
 H                    -0.70766   4.89872  -0.78499 
 H                     0.59701   4.67533   0.40258 
 H                    -5.78725   1.95198  -0.78386 
 H                    -1.98723   0.01856  -0.28682 
 O                     0.46663   1.64023   1.66855 
 O                     2.44124   1.04268   0.33615 
 C                     1.23179   5.89654  -3.49096 
 O                     0.80424  -0.81367   0.91588 
 C                     4.44185   3.13666  -0.77546 
 C                    -5.18463  -0.3261    2.1731 
 O                     0.06431   0.87794  -0.77547 
 C                    -0.93054   1.32521   4.27604 
 C                    -1.08031  -3.22645   1.99895 
 C                     1.05609   0.87765  -3.81584 
 C                     1.21536   3.37335  -3.59855 
 C                     3.70071  -0.93328  -0.12369 
 C                     4.48108  -1.37304  -2.37142 
 C                     2.79992   4.43579  -2.15804 
 C                     1.7535    4.54599  -3.07122 
 C                     2.69705  -1.3179    2.31026 
 C                     2.74677   2.02511  -2.30897 
 C                     3.14854   0.25965  -0.56629 
 C                     3.79581  -1.50668   1.27764 
 C                     3.30703   3.19607  -1.76734 
 C                     5.01211  -0.95499   2.07251 
 C                     1.69443   2.11409  -3.2372 
 C                     4.34042  -1.76446  -1.04494 
 C                     3.97065  -0.14097  -2.7764 
 C                     0.46985  -1.10711   3.27476 
 C                     1.33497  -1.1086    2.17091 
 C                     4.74878  -1.40536   3.52479 
 C                     3.28332   0.69518  -1.88913 
 C                     2.41212  -1.37987   4.71566 
 C                    -0.99429  -0.91242   3.05332 
 C                     3.23713  -1.39091   3.59967 
 C                    -3.07265  -1.70565   2.1042 
 C                     1.03089  -1.27188   4.54238 
 C                    -1.7235   -1.9148    2.38051 
 C                    -2.98868   0.4451    3.15079 
 C                    -1.63762   0.2647    3.4684 
 C                    -3.72234  -0.52635   2.47519 
 C                     4.03382  -3.01651   0.96736 
 C                     4.79206  -3.04147  -0.37495 
 P                     0.85745   0.75435   0.48475 
 H                    -0.28912   2.55989   1.41145 
 H                     0.18433   5.83786  -3.7976 
 H                     1.31059   6.6213   -2.67637 
 H                     1.80145   6.29138  -4.33875 
 H                     4.9058    4.11901  -0.66369 
 H                     5.21002   2.42591  -1.09279 
 H                     4.08177   2.81478   0.2068 
 H                    -5.47229  -0.8582    1.26124 
 H                    -5.80583  -0.70854   2.98985 
 H                    -5.41813   0.73415   2.04123 
 H                    -0.98534   1.08891   5.34482 
 H                     0.11913   1.41303   3.99725 
 H                    -1.41898   2.29355   4.13194 
 H                    -0.77946  -3.78094   2.8938 
 H                    -0.17972  -3.08791   1.39603 
 H                    -1.77537  -3.84618   1.42706 
 H                     1.73832   0.33624  -4.47802 
 H                     0.76587   0.19999  -3.01113 
 H                     0.16703   1.14112  -4.39335 
 H                     0.39242   3.43765  -4.3074 
 H                     4.98274  -2.01775  -3.08688 
 H                     3.23634   5.33886  -1.7359 
 H                     5.00392   0.13882   2.01581 
 H                     5.96286  -1.31404   1.66719 
 H                     4.09641   0.18833  -3.80375 
 H                     5.20441  -0.74002   4.26301 
 H                     5.14529  -2.41107   3.70882 
 H                     2.83334  -1.43869   5.71481 
 H                    -3.63029  -2.47955   1.57863 
 H                     0.37145  -1.27241   5.40537 
 H                    -3.47684   1.37105   3.45139 
 H                     4.57825  -3.51309   1.77507 
 H                     3.07082  -3.5164    0.85813 
 H                     4.55426  -3.92715  -0.97141 
 H                     5.87851  -3.03512  -0.22386 
 H                    -6.62466  -0.09286  -1.99308 
 O                    -2.66133  -2.20338  -1.55536 
 C                    -1.27713  -1.99124  -1.33068 
 H                    -0.92242  -1.08352  -1.83096 
 H                    -1.04687  -1.9072   -0.26228 
 C                    -0.55946  -3.18881  -1.90676 
 C                     0.96155  -3.0806   -1.72627 
 F                    -0.95801  -4.33043  -1.30805 
 F                    -0.80058  -3.29508  -3.22963 
 F                     1.59043  -4.0215   -2.42174 
 F                     1.38671  -1.88447  -2.13422 
 F                     1.27746  -3.22622  -0.43642 
 
 ITRead=  0  0  0  0  0  0  0  0  0  0  0  0  0  0  0  0  0  0  0  0
 ITRead=  0  0  0  0  0  0  0  0  0  0  0  0  0  0  0  0  0  0  0  0
 ITRead=  0  0  0  0  0  0  0  0  0  0  0  0  0  0  0  0  0  0  0  0
 ITRead=  0  0  0  0  0  0  0  0  0  0  0  0  0  0  0  0  0  0  0  0
 ITRead=  0  0  0  0  0  0  0  0  0  0  0  0  0  0  0  0  0  0  0  0
 ITRead=  0  0  0  0  0  0  0  0  0  0  0  0
 MicOpt= -1 -1 -1 -1 -1 -1 -1 -1 -1 -1 -1 -1 -1 -1 -1 -1 -1 -1 -1 -1
 MicOpt= -1 -1 -1 -1 -1 -1 -1 -1 -1 -1 -1 -1 -1 -1 -1 -1 -1 -1 -1 -1
 MicOpt= -1 -1 -1 -1 -1 -1 -1 -1 -1 -1 -1 -1 -1 -1 -1 -1 -1 -1 -1 -1
 MicOpt= -1 -1 -1 -1 -1 -1 -1 -1 -1 -1 -1 -1 -1 -1 -1 -1 -1 -1 -1 -1
 MicOpt= -1 -1 -1 -1 -1 -1 -1 -1 -1 -1 -1 -1 -1 -1 -1 -1 -1 -1 -1 -1
 MicOpt= -1 -1 -1 -1 -1 -1 -1 -1 -1 -1 -1 -1
 NAtoms=    112 NQM=      112 NQMF=       0 NMMI=      0 NMMIF=      0
                NMic=       0 NMicF=      0.
                    Isotopes and Nuclear Properties:
 (Nuclear quadrupole moments (NQMom) in fm**2, nuclear magnetic moments (NMagM)
  in nuclear magnetons)

  Atom         1           2           3           4           5           6           7           8           9          10
 IAtWgt=          16          14          16          16          12          14          12          12          12          12
 AtmWgt=  15.9949146  14.0030740  15.9949146  15.9949146  12.0000000  14.0030740  12.0000000  12.0000000  12.0000000  12.0000000
 NucSpn=           0           2           0           0           0           2           0           0           0           0
 AtZEff=  -0.0000000  -0.0000000  -0.0000000  -0.0000000  -0.0000000  -0.0000000  -0.0000000  -0.0000000  -0.0000000  -0.0000000
 NQMom=    0.0000000   2.0440000   0.0000000   0.0000000   0.0000000   2.0440000   0.0000000   0.0000000   0.0000000   0.0000000
 NMagM=    0.0000000   0.4037610   0.0000000   0.0000000   0.0000000   0.4037610   0.0000000   0.0000000   0.0000000   0.0000000
 AtZNuc=   8.0000000   7.0000000   8.0000000   8.0000000   6.0000000   7.0000000   6.0000000   6.0000000   6.0000000   6.0000000

  Atom        11          12          13          14          15          16          17          18          19          20
 IAtWgt=          12          12          12          12          12          16          16           1           1           1
 AtmWgt=  12.0000000  12.0000000  12.0000000  12.0000000  12.0000000  15.9949146  15.9949146   1.0078250   1.0078250   1.0078250
 NucSpn=           0           0           0           0           0           0           0           1           1           1
 AtZEff=  -0.0000000  -0.0000000  -0.0000000  -0.0000000  -0.0000000  -0.0000000  -0.0000000  -0.0000000  -0.0000000  -0.0000000
 NQMom=    0.0000000   0.0000000   0.0000000   0.0000000   0.0000000   0.0000000   0.0000000   0.0000000   0.0000000   0.0000000
 NMagM=    0.0000000   0.0000000   0.0000000   0.0000000   0.0000000   0.0000000   0.0000000   2.7928460   2.7928460   2.7928460
 AtZNuc=   6.0000000   6.0000000   6.0000000   6.0000000   6.0000000   8.0000000   8.0000000   1.0000000   1.0000000   1.0000000

  Atom        21          22          23          24          25          26          27          28          29          30
 IAtWgt=           1           1           1           1           1          16          16          12          16          12
 AtmWgt=   1.0078250   1.0078250   1.0078250   1.0078250   1.0078250  15.9949146  15.9949146  12.0000000  15.9949146  12.0000000
 NucSpn=           1           1           1           1           1           0           0           0           0           0
 AtZEff=  -0.0000000  -0.0000000  -0.0000000  -0.0000000  -0.0000000  -0.0000000  -0.0000000  -0.0000000  -0.0000000  -0.0000000
 NQMom=    0.0000000   0.0000000   0.0000000   0.0000000   0.0000000   0.0000000   0.0000000   0.0000000   0.0000000   0.0000000
 NMagM=    2.7928460   2.7928460   2.7928460   2.7928460   2.7928460   0.0000000   0.0000000   0.0000000   0.0000000   0.0000000
 AtZNuc=   1.0000000   1.0000000   1.0000000   1.0000000   1.0000000   8.0000000   8.0000000   6.0000000   8.0000000   6.0000000

  Atom        31          32          33          34          35          36          37          38          39          40
 IAtWgt=          12          16          12          12          12          12          12          12          12          12
 AtmWgt=  12.0000000  15.9949146  12.0000000  12.0000000  12.0000000  12.0000000  12.0000000  12.0000000  12.0000000  12.0000000
 NucSpn=           0           0           0           0           0           0           0           0           0           0
 AtZEff=  -0.0000000  -0.0000000  -0.0000000  -0.0000000  -0.0000000  -0.0000000  -0.0000000  -0.0000000  -0.0000000  -0.0000000
 NQMom=    0.0000000   0.0000000   0.0000000   0.0000000   0.0000000   0.0000000   0.0000000   0.0000000   0.0000000   0.0000000
 NMagM=    0.0000000   0.0000000   0.0000000   0.0000000   0.0000000   0.0000000   0.0000000   0.0000000   0.0000000   0.0000000
 AtZNuc=   6.0000000   8.0000000   6.0000000   6.0000000   6.0000000   6.0000000   6.0000000   6.0000000   6.0000000   6.0000000

  Atom        41          42          43          44          45          46          47          48          49          50
 IAtWgt=          12          12          12          12          12          12          12          12          12          12
 AtmWgt=  12.0000000  12.0000000  12.0000000  12.0000000  12.0000000  12.0000000  12.0000000  12.0000000  12.0000000  12.0000000
 NucSpn=           0           0           0           0           0           0           0           0           0           0
 AtZEff=  -0.0000000  -0.0000000  -0.0000000  -0.0000000  -0.0000000  -0.0000000  -0.0000000  -0.0000000  -0.0000000  -0.0000000
 NQMom=    0.0000000   0.0000000   0.0000000   0.0000000   0.0000000   0.0000000   0.0000000   0.0000000   0.0000000   0.0000000
 NMagM=    0.0000000   0.0000000   0.0000000   0.0000000   0.0000000   0.0000000   0.0000000   0.0000000   0.0000000   0.0000000
 AtZNuc=   6.0000000   6.0000000   6.0000000   6.0000000   6.0000000   6.0000000   6.0000000   6.0000000   6.0000000   6.0000000

  Atom        51          52          53          54          55          56          57          58          59          60
 IAtWgt=          12          12          12          12          12          12          12          12          12          12
 AtmWgt=  12.0000000  12.0000000  12.0000000  12.0000000  12.0000000  12.0000000  12.0000000  12.0000000  12.0000000  12.0000000
 NucSpn=           0           0           0           0           0           0           0           0           0           0
 AtZEff=  -0.0000000  -0.0000000  -0.0000000  -0.0000000  -0.0000000  -0.0000000  -0.0000000  -0.0000000  -0.0000000  -0.0000000
 NQMom=    0.0000000   0.0000000   0.0000000   0.0000000   0.0000000   0.0000000   0.0000000   0.0000000   0.0000000   0.0000000
 NMagM=    0.0000000   0.0000000   0.0000000   0.0000000   0.0000000   0.0000000   0.0000000   0.0000000   0.0000000   0.0000000
 AtZNuc=   6.0000000   6.0000000   6.0000000   6.0000000   6.0000000   6.0000000   6.0000000   6.0000000   6.0000000   6.0000000

  Atom        61          62          63          64          65          66          67          68          69          70
 IAtWgt=          12          12          12          12          31           1           1           1           1           1
 AtmWgt=  12.0000000  12.0000000  12.0000000  12.0000000  30.9737634   1.0078250   1.0078250   1.0078250   1.0078250   1.0078250
 NucSpn=           0           0           0           0           1           1           1           1           1           1
 AtZEff=  -0.0000000  -0.0000000  -0.0000000  -0.0000000  -0.0000000  -0.0000000  -0.0000000  -0.0000000  -0.0000000  -0.0000000
 NQMom=    0.0000000   0.0000000   0.0000000   0.0000000   0.0000000   0.0000000   0.0000000   0.0000000   0.0000000   0.0000000
 NMagM=    0.0000000   0.0000000   0.0000000   0.0000000   1.1316000   2.7928460   2.7928460   2.7928460   2.7928460   2.7928460
 AtZNuc=   6.0000000   6.0000000   6.0000000   6.0000000  15.0000000   1.0000000   1.0000000   1.0000000   1.0000000   1.0000000

  Atom        71          72          73          74          75          76          77          78          79          80
 IAtWgt=           1           1           1           1           1           1           1           1           1           1
 AtmWgt=   1.0078250   1.0078250   1.0078250   1.0078250   1.0078250   1.0078250   1.0078250   1.0078250   1.0078250   1.0078250
 NucSpn=           1           1           1           1           1           1           1           1           1           1
 AtZEff=  -0.0000000  -0.0000000  -0.0000000  -0.0000000  -0.0000000  -0.0000000  -0.0000000  -0.0000000  -0.0000000  -0.0000000
 NQMom=    0.0000000   0.0000000   0.0000000   0.0000000   0.0000000   0.0000000   0.0000000   0.0000000   0.0000000   0.0000000
 NMagM=    2.7928460   2.7928460   2.7928460   2.7928460   2.7928460   2.7928460   2.7928460   2.7928460   2.7928460   2.7928460
 AtZNuc=   1.0000000   1.0000000   1.0000000   1.0000000   1.0000000   1.0000000   1.0000000   1.0000000   1.0000000   1.0000000

  Atom        81          82          83          84          85          86          87          88          89          90
 IAtWgt=           1           1           1           1           1           1           1           1           1           1
 AtmWgt=   1.0078250   1.0078250   1.0078250   1.0078250   1.0078250   1.0078250   1.0078250   1.0078250   1.0078250   1.0078250
 NucSpn=           1           1           1           1           1           1           1           1           1           1
 AtZEff=  -0.0000000  -0.0000000  -0.0000000  -0.0000000  -0.0000000  -0.0000000  -0.0000000  -0.0000000  -0.0000000  -0.0000000
 NQMom=    0.0000000   0.0000000   0.0000000   0.0000000   0.0000000   0.0000000   0.0000000   0.0000000   0.0000000   0.0000000
 NMagM=    2.7928460   2.7928460   2.7928460   2.7928460   2.7928460   2.7928460   2.7928460   2.7928460   2.7928460   2.7928460
 AtZNuc=   1.0000000   1.0000000   1.0000000   1.0000000   1.0000000   1.0000000   1.0000000   1.0000000   1.0000000   1.0000000

  Atom        91          92          93          94          95          96          97          98          99         100
 IAtWgt=           1           1           1           1           1           1           1           1           1           1
 AtmWgt=   1.0078250   1.0078250   1.0078250   1.0078250   1.0078250   1.0078250   1.0078250   1.0078250   1.0078250   1.0078250
 NucSpn=           1           1           1           1           1           1           1           1           1           1
 AtZEff=  -0.0000000  -0.0000000  -0.0000000  -0.0000000  -0.0000000  -0.0000000  -0.0000000  -0.0000000  -0.0000000  -0.0000000
 NQMom=    0.0000000   0.0000000   0.0000000   0.0000000   0.0000000   0.0000000   0.0000000   0.0000000   0.0000000   0.0000000
 NMagM=    2.7928460   2.7928460   2.7928460   2.7928460   2.7928460   2.7928460   2.7928460   2.7928460   2.7928460   2.7928460
 AtZNuc=   1.0000000   1.0000000   1.0000000   1.0000000   1.0000000   1.0000000   1.0000000   1.0000000   1.0000000   1.0000000

  Atom       101         102         103         104         105         106         107         108         109         110
 IAtWgt=           1          16          12           1           1          12          12          19          19          19
 AtmWgt=   1.0078250  15.9949146  12.0000000   1.0078250   1.0078250  12.0000000  12.0000000  18.9984032  18.9984032  18.9984032
 NucSpn=           1           0           0           1           1           0           0           1           1           1
 AtZEff=  -0.0000000  -0.0000000  -0.0000000  -0.0000000  -0.0000000  -0.0000000  -0.0000000  -0.0000000  -0.0000000  -0.0000000
 NQMom=    0.0000000   0.0000000   0.0000000   0.0000000   0.0000000   0.0000000   0.0000000   0.0000000   0.0000000   0.0000000
 NMagM=    2.7928460   0.0000000   0.0000000   2.7928460   2.7928460   0.0000000   0.0000000   2.6288670   2.6288670   2.6288670
 AtZNuc=   1.0000000   8.0000000   6.0000000   1.0000000   1.0000000   6.0000000   6.0000000   9.0000000   9.0000000   9.0000000

  Atom       111         112
 IAtWgt=          19          19
 AtmWgt=  18.9984032  18.9984032
 NucSpn=           1           1
 AtZEff=  -0.0000000  -0.0000000
 NQMom=    0.0000000   0.0000000
 NMagM=    2.6288670   2.6288670
 AtZNuc=   9.0000000   9.0000000
 Leave Link  101 at Tue Nov 15 20:24:19 2022, MaxMem=  8053063680 cpu:               4.1 elap:               0.4
 (Enter /project/chenjingdan/g16/l123.exe)
 IRC-IRC-IRC-IRC-IRC-IRC-IRC-IRC-IRC-IRC-IRC-IRC-IRC-IRC-IRC-IRC-IRC-IRC
 ------------------------------------------------------------------------
 INPUT DATA FOR L123
 ------------------------------------------------------------------------
 GENERAL PARAMETERS:
 Follow reaction path in both directions.
 Maximum points per path      =  30
 Step size                    =   0.080 bohr
 Integration scheme           = LQA                                 
 Initial Hessian              = CalcFC
 Hessian evaluation           = All updating
 Hessian updating method      = Bofill                              
 ------------------------------------------------------------------------
 IRC-IRC-IRC-IRC-IRC-IRC-IRC-IRC-IRC-IRC-IRC-IRC-IRC-IRC-IRC-IRC-IRC-IRC
 Leave Link  123 at Tue Nov 15 20:24:19 2022, MaxMem=  8053063680 cpu:               0.3 elap:               0.1
 (Enter /project/chenjingdan/g16/l202.exe)
 Symmetry turned off by external request.
 Stoichiometry    C48H46F5N2O10P
 Framework group  C1[X(C48H46F5N2O10P)]
 Deg. of freedom   330
 Full point group                 C1      NOp   1
                          Input orientation:                          
 ---------------------------------------------------------------------
 Center     Atomic      Atomic             Coordinates (Angstroms)
 Number     Number       Type             X           Y           Z
 ---------------------------------------------------------------------
      1          8           0       -0.789420    5.135790    2.406690
      2          7           0       -2.031790    2.556990    0.138320
      3          8           0       -2.698190    4.017700    2.579650
      4          8           0       -4.140740    2.909510    0.990000
      5          6           0       -0.193350    4.167960   -0.151610
      6          7           0       -5.377390   -2.321650   -2.418250
      7          6           0       -4.789060   -1.142160   -1.773940
      8          6           0       -1.636100    4.215060    1.947190
      9          6           0       -3.826510    1.101600   -0.501940
     10          6           0       -1.139270    3.478520    0.822450
     11          6           0       -3.301810    2.261930    0.256890
     12          6           0       -5.146540    1.095040   -0.953670
     13          6           0       -3.455060   -1.141850   -1.334500
     14          6           0       -2.992970    0.005710   -0.687950
     15          6           0       -5.614740   -0.035020   -1.605840
     16          8           0       -4.951530   -3.411270   -2.096650
     17          8           0       -6.278730   -2.120220   -3.214310
     18          1           0       -1.178240    5.491300    3.220120
     19          1           0       -1.478590    1.941100   -0.475470
     20          1           0       -3.606350    3.456360    1.740620
     21          1           0        0.278730    3.425020   -0.803550
     22          1           0       -0.707660    4.898720   -0.784990
     23          1           0        0.597010    4.675330    0.402580
     24          1           0       -5.787250    1.951980   -0.783860
     25          1           0       -1.987230    0.018560   -0.286820
     26          8           0        0.466630    1.640230    1.668550
     27          8           0        2.441240    1.042680    0.336150
     28          6           0        1.231790    5.896540   -3.490960
     29          8           0        0.804240   -0.813670    0.915880
     30          6           0        4.441850    3.136660   -0.775460
     31          6           0       -5.184630   -0.326100    2.173100
     32          8           0        0.064310    0.877940   -0.775470
     33          6           0       -0.930540    1.325210    4.276040
     34          6           0       -1.080310   -3.226450    1.998950
     35          6           0        1.056090    0.877650   -3.815840
     36          6           0        1.215360    3.373350   -3.598550
     37          6           0        3.700710   -0.933280   -0.123690
     38          6           0        4.481080   -1.373040   -2.371420
     39          6           0        2.799920    4.435790   -2.158040
     40          6           0        1.753500    4.545990   -3.071220
     41          6           0        2.697050   -1.317900    2.310260
     42          6           0        2.746770    2.025110   -2.308970
     43          6           0        3.148540    0.259650   -0.566290
     44          6           0        3.795810   -1.506680    1.277640
     45          6           0        3.307030    3.196070   -1.767340
     46          6           0        5.012110   -0.954990    2.072510
     47          6           0        1.694430    2.114090   -3.237200
     48          6           0        4.340420   -1.764460   -1.044940
     49          6           0        3.970650   -0.140970   -2.776400
     50          6           0        0.469850   -1.107110    3.274760
     51          6           0        1.334970   -1.108600    2.170910
     52          6           0        4.748780   -1.405360    3.524790
     53          6           0        3.283320    0.695180   -1.889130
     54          6           0        2.412120   -1.379870    4.715660
     55          6           0       -0.994290   -0.912420    3.053320
     56          6           0        3.237130   -1.390910    3.599670
     57          6           0       -3.072650   -1.705650    2.104200
     58          6           0        1.030890   -1.271880    4.542380
     59          6           0       -1.723500   -1.914800    2.380510
     60          6           0       -2.988680    0.445100    3.150790
     61          6           0       -1.637620    0.264700    3.468400
     62          6           0       -3.722340   -0.526350    2.475190
     63          6           0        4.033820   -3.016510    0.967360
     64          6           0        4.792060   -3.041470   -0.374950
     65         15           0        0.857450    0.754350    0.484750
     66          1           0       -0.289120    2.559890    1.411450
     67          1           0        0.184330    5.837860   -3.797600
     68          1           0        1.310590    6.621300   -2.676370
     69          1           0        1.801450    6.291380   -4.338750
     70          1           0        4.905800    4.119010   -0.663690
     71          1           0        5.210020    2.425910   -1.092790
     72          1           0        4.081770    2.814780    0.206800
     73          1           0       -5.472290   -0.858200    1.261240
     74          1           0       -5.805830   -0.708540    2.989850
     75          1           0       -5.418130    0.734150    2.041230
     76          1           0       -0.985340    1.088910    5.344820
     77          1           0        0.119130    1.413030    3.997250
     78          1           0       -1.418980    2.293550    4.131940
     79          1           0       -0.779460   -3.780940    2.893800
     80          1           0       -0.179720   -3.087910    1.396030
     81          1           0       -1.775370   -3.846180    1.427060
     82          1           0        1.738320    0.336240   -4.478020
     83          1           0        0.765870    0.199990   -3.011130
     84          1           0        0.167030    1.141120   -4.393350
     85          1           0        0.392420    3.437650   -4.307400
     86          1           0        4.982740   -2.017750   -3.086880
     87          1           0        3.236340    5.338860   -1.735900
     88          1           0        5.003920    0.138820    2.015810
     89          1           0        5.962860   -1.314040    1.667190
     90          1           0        4.096410    0.188330   -3.803750
     91          1           0        5.204410   -0.740020    4.263010
     92          1           0        5.145290   -2.411070    3.708820
     93          1           0        2.833340   -1.438690    5.714810
     94          1           0       -3.630290   -2.479550    1.578630
     95          1           0        0.371450   -1.272410    5.405370
     96          1           0       -3.476840    1.371050    3.451390
     97          1           0        4.578250   -3.513090    1.775070
     98          1           0        3.070820   -3.516400    0.858130
     99          1           0        4.554260   -3.927150   -0.971410
    100          1           0        5.878510   -3.035120   -0.223860
    101          1           0       -6.624660   -0.092860   -1.993080
    102          8           0       -2.661330   -2.203380   -1.555360
    103          6           0       -1.277130   -1.991240   -1.330680
    104          1           0       -0.922420   -1.083520   -1.830960
    105          1           0       -1.046870   -1.907200   -0.262280
    106          6           0       -0.559460   -3.188810   -1.906760
    107          6           0        0.961550   -3.080600   -1.726270
    108          9           0       -0.958010   -4.330430   -1.308050
    109          9           0       -0.800580   -3.295080   -3.229630
    110          9           0        1.590430   -4.021500   -2.421740
    111          9           0        1.386710   -1.884470   -2.134220
    112          9           0        1.277460   -3.226220   -0.436420
 ---------------------------------------------------------------------
 Rotational constants (GHZ):           0.0462423           0.0377339           0.0345491
 Leave Link  202 at Tue Nov 15 20:24:20 2022, MaxMem=  8053063680 cpu:               0.9 elap:               0.2
 (Enter /project/chenjingdan/g16/l301.exe)
 Standard basis: 6-31G(d,p) (6D, 7F)
 Ernie: Thresh=  0.10000D-02 Tol=  0.10000D-05 Strict=F.
  1224 basis functions,  2194 primitive gaussians,  1224 cartesian basis functions
   244 alpha electrons      244 beta electrons
       nuclear repulsion energy     12515.7816768566 Hartrees.
 IExCor= 4336 DFT=T Ex+Corr=M062X ExCW=0 ScaHFX=  0.540000
 ScaDFX=  1.000000  1.000000  1.000000  1.000000 ScalE2=  1.000000  1.000000
 IRadAn=      5 IRanWt=     -1 IRanGd=            0 ICorTp=0 IEmpDi=  4
 NAtoms=  112 NActive=  112 NUniq=  112 SFac= 1.00D+00 NAtFMM=   60 NAOKFM=T Big=T
 Integral buffers will be    131072 words long.
 Raffenetti 2 integral format.
 Two-electron integral symmetry is turned off.
 Leave Link  301 at Tue Nov 15 20:24:21 2022, MaxMem=  8053063680 cpu:               3.2 elap:               0.3
 (Enter /project/chenjingdan/g16/l302.exe)
 NPDir=0 NMtPBC=     1 NCelOv=     1 NCel=       1 NClECP=     1 NCelD=      1
         NCelK=      1 NCelE2=     1 NClLst=     1 CellRange=     0.0.
 One-electron integrals computed using PRISM.
 NBasis=  1224 RedAO= T EigKep=  2.34D-04  NBF=  1224
 NBsUse=  1224 1.00D-06 EigRej= -1.00D+00 NBFU=  1224
 Precomputing XC quadrature grid using
 IXCGrd= 4 IRadAn=           5 IRanWt=          -1 IRanGd=           0 AccXCQ= 0.00D+00.
 Generated NRdTot=       0 NPtTot=           0 NUsed=           0 NTot=          32
 NSgBfM=  1131  1108  1118  1131  1131 MxSgAt=   112 MxSgA2=   112.
 Leave Link  302 at Tue Nov 15 20:24:24 2022, MaxMem=  8053063680 cpu:              47.5 elap:               3.0
 (Enter /project/chenjingdan/g16/l303.exe)
 DipDrv:  MaxL=1.
 Leave Link  303 at Tue Nov 15 20:24:24 2022, MaxMem=  8053063680 cpu:               2.6 elap:               0.2
 (Enter /project/chenjingdan/g16/l401.exe)
 ExpMin= 9.98D-02 ExpMax= 1.94D+04 ExpMxC= 2.91D+03 IAcc=3 IRadAn=         5 AccDes= 0.00D+00
 Harris functional with IExCor= 1009 and IRadAn=       5 diagonalized for initial guess.
 HarFok:  IExCor= 1009 AccDes= 0.00D+00 IRadAn=         5 IDoV= 1 UseB2=F ITyADJ=14
 ICtDFT=  3500011 ScaDFX=  1.000000  1.000000  1.000000  1.000000
 FoFCou: FMM=F IPFlag=           0 FMFlag=      100000 FMFlg1=        2001
         NFxFlg=           0 DoJE=T BraDBF=F KetDBF=T FulRan=T
         wScrn=  0.000000 ICntrl=       500 IOpCl=  0 I1Cent=   200000004 NGrid=           0
         NMat0=    1 NMatS0=      1 NMatT0=    0 NMatD0=    1 NMtDS0=    0 NMtDT0=    0
 Symmetry not used in FoFCou.
 Harris En= -3556.25341794177    
 JPrj=0 DoOrth=F DoCkMO=F.
 Leave Link  401 at Tue Nov 15 20:24:33 2022, MaxMem=  8053063680 cpu:             123.9 elap:               7.9
 (Enter /project/chenjingdan/g16/l502.exe)
 Two-electron integral symmetry not used.
 Closed shell SCF:
 Using DIIS extrapolation, IDIIS=  1040.
 NGot=  8053063680 LenX=  8050035410 LenY=  8048536010
 Requested convergence on RMS density matrix=1.00D-08 within 128 cycles.
 Requested convergence on MAX density matrix=1.00D-06.
 Requested convergence on             energy=1.00D-06.
 No special actions if energy rises.
 Fock matrices will be formed incrementally for  20 cycles.
 Integral accuracy reduced to 1.0D-05 until final iterations.

 Cycle   1  Pass 0  IDiag  1:
 FoFJK:  IHMeth= 1 ICntrl=       0 DoSepK=F KAlg= 0 I1Cent=           0 FoldK=F
 IRaf= 770000000 NMat=       1 IRICut=       1 DoRegI=T DoRafI=F ISym2E= 0 IDoP0=0 IntGTp=1.
 FoFCou: FMM=T IPFlag=           0 FMFlag=      100000 FMFlg1=        2001
         NFxFlg=           0 DoJE=F BraDBF=F KetDBF=F FulRan=T
         wScrn=  0.000000 ICntrl=         0 IOpCl=  0 I1Cent=           0 NGrid=           0
         NMat0=    1 NMatS0=      1 NMatT0=    0 NMatD0=    1 NMtDS0=    0 NMtDT0=    0
 Symmetry not used in FoFCou.
 FMM levels:  10  Number of levels for PrismC:   9
 E= -3556.42998983033    
 DIIS: error= 1.66D-02 at cycle   1 NSaved=   1.
 NSaved= 1 IEnMin= 1 EnMin= -3556.42998983033     IErMin= 1 ErrMin= 1.66D-02
 ErrMax= 1.66D-02  0.00D+00 EMaxC= 1.00D-01 BMatC= 1.91D+00 BMatP= 1.91D+00
 IDIUse=3 WtCom= 8.34D-01 WtEn= 1.66D-01
 Coeff-Com:  0.100D+01
 Coeff-En:   0.100D+01
 Coeff:      0.100D+01
 Gap=     0.211 Goal=   None    Shift=    0.000
 GapD=    0.211 DampG=1.000 DampE=0.500 DampFc=0.5000 IDamp=-1.
 Damping current iteration by 5.00D-01
 RMSDP=1.97D-03 MaxDP=2.34D-01              OVMax= 2.25D-01

 Cycle   2  Pass 0  IDiag  1:
 RMSU=  9.75D-04    CP:  9.84D-01
 E= -3557.18991168676     Delta-E=       -0.759921856436 Rises=F Damp=T
 DIIS: error= 9.42D-03 at cycle   2 NSaved=   2.
 NSaved= 2 IEnMin= 2 EnMin= -3557.18991168676     IErMin= 2 ErrMin= 9.42D-03
 ErrMax= 9.42D-03  0.00D+00 EMaxC= 1.00D-01 BMatC= 1.63D-01 BMatP= 1.91D+00
 IDIUse=3 WtCom= 9.06D-01 WtEn= 9.42D-02
 Coeff-Com: -0.492D-01 0.105D+01
 Coeff-En:   0.000D+00 0.100D+01
 Coeff:     -0.446D-01 0.104D+01
 Gap=     0.238 Goal=   None    Shift=    0.000
 RMSDP=6.09D-04 MaxDP=9.41D-02 DE=-7.60D-01 OVMax= 1.41D-01

 Cycle   3  Pass 0  IDiag  1:
 RMSU=  5.94D-04    CP:  9.73D-01  1.08D+00
 E= -3557.91140690904     Delta-E=       -0.721495222277 Rises=F Damp=F
 DIIS: error= 4.83D-03 at cycle   3 NSaved=   3.
 NSaved= 3 IEnMin= 3 EnMin= -3557.91140690904     IErMin= 3 ErrMin= 4.83D-03
 ErrMax= 4.83D-03  0.00D+00 EMaxC= 1.00D-01 BMatC= 8.35D-02 BMatP= 1.63D-01
 IDIUse=3 WtCom= 9.52D-01 WtEn= 4.83D-02
 Coeff-Com: -0.898D-01 0.451D+00 0.639D+00
 Coeff-En:   0.000D+00 0.000D+00 0.100D+01
 Coeff:     -0.855D-01 0.430D+00 0.656D+00
 Gap=     0.215 Goal=   None    Shift=    0.000
 RMSDP=3.00D-04 MaxDP=4.17D-02 DE=-7.21D-01 OVMax= 5.45D-02

 Cycle   4  Pass 0  IDiag  1:
 RMSU=  2.25D-04    CP:  9.75D-01  1.14D+00  6.85D-01
 E= -3557.96499860886     Delta-E=       -0.053591699821 Rises=F Damp=F
 DIIS: error= 2.15D-03 at cycle   4 NSaved=   4.
 NSaved= 4 IEnMin= 4 EnMin= -3557.96499860886     IErMin= 4 ErrMin= 2.15D-03
 ErrMax= 2.15D-03  0.00D+00 EMaxC= 1.00D-01 BMatC= 1.52D-02 BMatP= 8.35D-02
 IDIUse=3 WtCom= 9.78D-01 WtEn= 2.15D-02
 Coeff-Com: -0.321D-01 0.907D-01 0.335D+00 0.606D+00
 Coeff-En:   0.000D+00 0.000D+00 0.147D+00 0.853D+00
 Coeff:     -0.314D-01 0.888D-01 0.331D+00 0.611D+00
 Gap=     0.205 Goal=   None    Shift=    0.000
 RMSDP=1.23D-04 MaxDP=1.10D-02 DE=-5.36D-02 OVMax= 1.94D-02

 Cycle   5  Pass 0  IDiag  1:
 RMSU=  5.67D-05    CP:  9.74D-01  1.14D+00  7.77D-01  5.80D-01
 E= -3557.97723126042     Delta-E=       -0.012232651557 Rises=F Damp=F
 DIIS: error= 4.32D-04 at cycle   5 NSaved=   5.
 NSaved= 5 IEnMin= 5 EnMin= -3557.97723126042     IErMin= 5 ErrMin= 4.32D-04
 ErrMax= 4.32D-04  0.00D+00 EMaxC= 1.00D-01 BMatC= 9.74D-04 BMatP= 1.52D-02
 IDIUse=3 WtCom= 9.96D-01 WtEn= 4.32D-03
 Coeff-Com: -0.115D-01 0.246D-01 0.139D+00 0.315D+00 0.533D+00
 Coeff-En:   0.000D+00 0.000D+00 0.000D+00 0.000D+00 0.100D+01
 Coeff:     -0.115D-01 0.245D-01 0.139D+00 0.314D+00 0.535D+00
 Gap=     0.206 Goal=   None    Shift=    0.000
 RMSDP=3.40D-05 MaxDP=2.41D-03 DE=-1.22D-02 OVMax= 5.44D-03

 Cycle   6  Pass 0  IDiag  1:
 RMSU=  1.80D-05    CP:  9.74D-01  1.14D+00  7.74D-01  6.49D-01  5.78D-01
 E= -3557.97811508729     Delta-E=       -0.000883826871 Rises=F Damp=F
 DIIS: error= 1.78D-04 at cycle   6 NSaved=   6.
 NSaved= 6 IEnMin= 6 EnMin= -3557.97811508729     IErMin= 6 ErrMin= 1.78D-04
 ErrMax= 1.78D-04  0.00D+00 EMaxC= 1.00D-01 BMatC= 6.36D-05 BMatP= 9.74D-04
 IDIUse=3 WtCom= 9.98D-01 WtEn= 1.78D-03
 Coeff-Com: -0.204D-02 0.261D-02 0.309D-01 0.819D-01 0.249D+00 0.638D+00
 Coeff-En:   0.000D+00 0.000D+00 0.000D+00 0.000D+00 0.000D+00 0.100D+01
 Coeff:     -0.204D-02 0.261D-02 0.308D-01 0.817D-01 0.248D+00 0.639D+00
 Gap=     0.207 Goal=   None    Shift=    0.000
 RMSDP=9.18D-06 MaxDP=1.14D-03 DE=-8.84D-04 OVMax= 2.09D-03

 Cycle   7  Pass 0  IDiag  1:
 RMSU=  5.80D-06    CP:  9.74D-01  1.14D+00  7.79D-01  6.45D-01  6.62D-01
                    CP:  7.67D-01
 E= -3557.97818594742     Delta-E=       -0.000070860129 Rises=F Damp=F
 DIIS: error= 1.22D-04 at cycle   7 NSaved=   7.
 NSaved= 7 IEnMin= 7 EnMin= -3557.97818594742     IErMin= 7 ErrMin= 1.22D-04
 ErrMax= 1.22D-04  0.00D+00 EMaxC= 1.00D-01 BMatC= 1.12D-05 BMatP= 6.36D-05
 IDIUse=3 WtCom= 9.99D-01 WtEn= 1.22D-03
 Coeff-Com:  0.312D-03-0.169D-02-0.319D-03 0.552D-02 0.752D-01 0.349D+00
 Coeff-Com:  0.571D+00
 Coeff-En:   0.000D+00 0.000D+00 0.000D+00 0.000D+00 0.000D+00 0.000D+00
 Coeff-En:   0.100D+01
 Coeff:      0.311D-03-0.168D-02-0.318D-03 0.552D-02 0.751D-01 0.349D+00
 Coeff:      0.572D+00
 Gap=     0.207 Goal=   None    Shift=    0.000
 RMSDP=3.47D-06 MaxDP=5.99D-04 DE=-7.09D-05 OVMax= 9.91D-04

 Initial convergence to 1.0D-05 achieved.  Increase integral accuracy.
 Cycle   8  Pass 1  IDiag  1:
 E= -3557.97789510870     Delta-E=        0.000290838716 Rises=F Damp=F
 DIIS: error= 3.03D-04 at cycle   1 NSaved=   1.
 NSaved= 1 IEnMin= 1 EnMin= -3557.97789510870     IErMin= 1 ErrMin= 3.03D-04
 ErrMax= 3.03D-04  0.00D+00 EMaxC= 1.00D-01 BMatC= 9.57D-05 BMatP= 9.57D-05
 IDIUse=3 WtCom= 9.97D-01 WtEn= 3.03D-03
 Coeff-Com:  0.100D+01
 Coeff-En:   0.100D+01
 Coeff:      0.100D+01
 Gap=     0.207 Goal=   None    Shift=    0.000
 RMSDP=3.47D-06 MaxDP=5.99D-04 DE= 2.91D-04 OVMax= 1.11D-03

 Cycle   9  Pass 1  IDiag  1:
 RMSU=  1.43D-04    CP:  1.00D+00
 E= -3557.97797360291     Delta-E=       -0.000078494204 Rises=F Damp=F
 DIIS: error= 1.01D-04 at cycle   2 NSaved=   2.
 NSaved= 2 IEnMin= 2 EnMin= -3557.97797360291     IErMin= 2 ErrMin= 1.01D-04
 ErrMax= 1.01D-04  0.00D+00 EMaxC= 1.00D-01 BMatC= 4.26D-06 BMatP= 9.57D-05
 IDIUse=3 WtCom= 9.99D-01 WtEn= 1.01D-03
 Coeff-Com:  0.432D-01 0.957D+00
 Coeff-En:   0.000D+00 0.100D+01
 Coeff:      0.432D-01 0.957D+00
 Gap=     0.207 Goal=   None    Shift=    0.000
 RMSDP=5.46D-06 MaxDP=8.74D-04 DE=-7.85D-05 OVMax= 1.98D-03

 Cycle  10  Pass 1  IDiag  1:
 RMSU=  4.02D-06    CP:  1.00D+00  1.03D+00
 E= -3557.97796646690     Delta-E=        0.000007136008 Rises=F Damp=F
 DIIS: error= 1.91D-04 at cycle   3 NSaved=   3.
 NSaved= 3 IEnMin= 2 EnMin= -3557.97797360291     IErMin= 2 ErrMin= 1.01D-04
 ErrMax= 1.91D-04  0.00D+00 EMaxC= 1.00D-01 BMatC= 1.37D-05 BMatP= 4.26D-06
 IDIUse=3 WtCom= 4.20D-01 WtEn= 5.80D-01
 Coeff-Com: -0.143D-01 0.651D+00 0.364D+00
 Coeff-En:   0.000D+00 0.714D+00 0.286D+00
 Coeff:     -0.601D-02 0.687D+00 0.319D+00
 Gap=     0.207 Goal=   None    Shift=    0.000
 RMSDP=2.16D-06 MaxDP=5.10D-04 DE= 7.14D-06 OVMax= 1.17D-03

 Cycle  11  Pass 1  IDiag  1:
 RMSU=  7.34D-07    CP:  1.00D+00  1.03D+00  4.99D-01
 E= -3557.97797687650     Delta-E=       -0.000010409603 Rises=F Damp=F
 DIIS: error= 1.87D-05 at cycle   4 NSaved=   4.
 NSaved= 4 IEnMin= 4 EnMin= -3557.97797687650     IErMin= 4 ErrMin= 1.87D-05
 ErrMax= 1.87D-05  0.00D+00 EMaxC= 1.00D-01 BMatC= 1.90D-07 BMatP= 4.26D-06
 IDIUse=1 WtCom= 1.00D+00 WtEn= 0.00D+00
 Coeff-Com: -0.686D-02 0.281D+00 0.868D-01 0.639D+00
 Coeff:     -0.686D-02 0.281D+00 0.868D-01 0.639D+00
 Gap=     0.207 Goal=   None    Shift=    0.000
 RMSDP=3.55D-07 MaxDP=5.69D-05 DE=-1.04D-05 OVMax= 1.29D-04

 Cycle  12  Pass 1  IDiag  1:
 RMSU=  2.04D-07    CP:  1.00D+00  1.03D+00  4.31D-01  1.11D+00
 E= -3557.97797703128     Delta-E=       -0.000000154776 Rises=F Damp=F
 DIIS: error= 1.21D-06 at cycle   5 NSaved=   5.
 NSaved= 5 IEnMin= 5 EnMin= -3557.97797703128     IErMin= 5 ErrMin= 1.21D-06
 ErrMax= 1.21D-06  0.00D+00 EMaxC= 1.00D-01 BMatC= 4.88D-09 BMatP= 1.90D-07
 IDIUse=1 WtCom= 1.00D+00 WtEn= 0.00D+00
 Coeff-Com: -0.340D-03 0.197D-02-0.283D-01 0.277D+00 0.750D+00
 Coeff:     -0.340D-03 0.197D-02-0.283D-01 0.277D+00 0.750D+00
 Gap=     0.207 Goal=   None    Shift=    0.000
 RMSDP=1.01D-07 MaxDP=8.28D-06 DE=-1.55D-07 OVMax= 3.67D-05

 Cycle  13  Pass 1  IDiag  1:
 RMSU=  7.84D-08    CP:  1.00D+00  1.03D+00  4.36D-01  1.17D+00  8.55D-01
 E= -3557.97797703709     Delta-E=       -0.000000005813 Rises=F Damp=F
 DIIS: error= 5.85D-07 at cycle   6 NSaved=   6.
 NSaved= 6 IEnMin= 6 EnMin= -3557.97797703709     IErMin= 6 ErrMin= 5.85D-07
 ErrMax= 5.85D-07  0.00D+00 EMaxC= 1.00D-01 BMatC= 1.01D-09 BMatP= 4.88D-09
 IDIUse=1 WtCom= 1.00D+00 WtEn= 0.00D+00
 Coeff-Com:  0.867D-03-0.415D-01-0.277D-01 0.506D-01 0.382D+00 0.636D+00
 Coeff:      0.867D-03-0.415D-01-0.277D-01 0.506D-01 0.382D+00 0.636D+00
 Gap=     0.207 Goal=   None    Shift=    0.000
 RMSDP=4.15D-08 MaxDP=3.49D-06 DE=-5.81D-09 OVMax= 1.82D-05

 Cycle  14  Pass 1  IDiag  1:
 RMSU=  3.45D-08    CP:  1.00D+00  1.03D+00  4.37D-01  1.19D+00  9.50D-01
                    CP:  9.48D-01
 E= -3557.97797703866     Delta-E=       -0.000000001570 Rises=F Damp=F
 DIIS: error= 1.76D-07 at cycle   7 NSaved=   7.
 NSaved= 7 IEnMin= 7 EnMin= -3557.97797703866     IErMin= 7 ErrMin= 1.76D-07
 ErrMax= 1.76D-07  0.00D+00 EMaxC= 1.00D-01 BMatC= 1.03D-10 BMatP= 1.01D-09
 IDIUse=1 WtCom= 1.00D+00 WtEn= 0.00D+00
 Coeff-Com:  0.354D-03-0.152D-01-0.585D-02-0.192D-01 0.268D-01 0.235D+00
 Coeff-Com:  0.778D+00
 Coeff:      0.354D-03-0.152D-01-0.585D-02-0.192D-01 0.268D-01 0.235D+00
 Coeff:      0.778D+00
 Gap=     0.207 Goal=   None    Shift=    0.000
 RMSDP=1.83D-08 MaxDP=1.56D-06 DE=-1.57D-09 OVMax= 7.49D-06

 Cycle  15  Pass 1  IDiag  1:
 RMSU=  1.22D-08    CP:  1.00D+00  1.03D+00  4.38D-01  1.19D+00  9.53D-01
                    CP:  1.10D+00  1.11D+00
 E= -3557.97797703889     Delta-E=       -0.000000000224 Rises=F Damp=F
 DIIS: error= 6.85D-08 at cycle   8 NSaved=   8.
 NSaved= 8 IEnMin= 8 EnMin= -3557.97797703889     IErMin= 8 ErrMin= 6.85D-08
 ErrMax= 6.85D-08  0.00D+00 EMaxC= 1.00D-01 BMatC= 2.23D-11 BMatP= 1.03D-10
 IDIUse=1 WtCom= 1.00D+00 WtEn= 0.00D+00
 Coeff-Com: -0.479D-04 0.309D-02 0.398D-02-0.197D-01-0.788D-01-0.412D-01
 Coeff-Com:  0.344D+00 0.789D+00
 Coeff:     -0.479D-04 0.309D-02 0.398D-02-0.197D-01-0.788D-01-0.412D-01
 Coeff:      0.344D+00 0.789D+00
 Gap=     0.207 Goal=   None    Shift=    0.000
 RMSDP=9.46D-09 MaxDP=8.55D-07 DE=-2.24D-10 OVMax= 4.19D-06

 SCF Done:  E(RM062X) =  -3557.97797704     A.U. after   15 cycles
            NFock= 15  Conv=0.95D-08     -V/T= 2.0077
 KE= 3.530882036577D+03 PE=-3.335602629653D+04 EE= 1.375138460606D+04
 Leave Link  502 at Tue Nov 15 20:31:11 2022, MaxMem=  8053063680 cpu:            6344.9 elap:             397.5
 (Enter /project/chenjingdan/g16/l801.exe)
 DoSCS=F DFT=T ScalE2(SS,OS)=  1.000000  1.000000
 Range of M.O.s used for correlation:     1  1224
 NBasis=  1224 NAE=   244 NBE=   244 NFC=     0 NFV=     0
 NROrb=   1224 NOA=   244 NOB=   244 NVA=   980 NVB=   980
 Leave Link  801 at Tue Nov 15 20:31:11 2022, MaxMem=  8053063680 cpu:               0.7 elap:               0.1
 (Enter /project/chenjingdan/g16/l1101.exe)
 Using compressed storage, NAtomX=   112.
 Will process    113 centers per pass.
 Leave Link 1101 at Tue Nov 15 20:31:17 2022, MaxMem=  8053063680 cpu:              93.0 elap:               5.9
 (Enter /project/chenjingdan/g16/l1102.exe)
 Symmetrizing basis deriv contribution to polar:
 IMax=3 JMax=2 DiffMx= 0.00D+00
 Leave Link 1102 at Tue Nov 15 20:31:18 2022, MaxMem=  8053063680 cpu:               2.5 elap:               0.2
 (Enter /project/chenjingdan/g16/l1110.exe)
 Forming Gx(P) for the SCF density, NAtomX=   112.
 Integral derivatives from FoFJK, PRISM(SPDF).
 Do as many integral derivatives as possible in FoFJK.
 G2DrvN: MDV=    8053052008.
 G2DrvN: will do   113 centers at a time, making    1 passes.
 Calling FoFCou, ICntrl=  3107 FMM=T I1Cent=   0 AccDes= 0.00D+00.
 FoFJK:  IHMeth= 1 ICntrl=    3107 DoSepK=F KAlg= 0 I1Cent=           0 FoldK=F
 IRaf=         0 NMat=       1 IRICut=       1 DoRegI=T DoRafI=F ISym2E= 0 IDoP0=0 IntGTp=1.
 FoFCou: FMM=T IPFlag=           0 FMFlag=      100000 FMFlg1=        2001
         NFxFlg=           0 DoJE=F BraDBF=F KetDBF=F FulRan=T
         wScrn=  0.000000 ICntrl=      3107 IOpCl=  0 I1Cent=           0 NGrid=           0
         NMat0=    1 NMatS0=      1 NMatT0=    0 NMatD0=    1 NMtDS0=    0 NMtDT0=    0
 Symmetry not used in FoFCou.
 FMM levels:  10  Number of levels for PrismC:   9
 End of G2Drv F.D. properties file   721 does not exist.
 End of G2Drv F.D. properties file   722 does not exist.
 End of G2Drv F.D. properties file   788 does not exist.
 Leave Link 1110 at Tue Nov 15 21:16:57 2022, MaxMem=  8053063680 cpu:           43828.5 elap:            2739.5
 (Enter /project/chenjingdan/g16/l1002.exe)
 Minotr:  Closed shell wavefunction.
          IDoAtm=11111111111111111111111111111111111111111111111111
          IDoAtm=11111111111111111111111111111111111111111111111111
          IDoAtm=111111111111
          Direct CPHF calculation.
          Differentiating once with respect to nuclear coordinates.
          Requested convergence is 1.0D-08 RMS, and 1.0D-07 maximum.
          Secondary convergence is 1.0D-12 RMS, and 1.0D-12 maximum.
          NewPWx=T KeepS1=F KeepF1=F KeepIn=T MapXYZ=F SortEE=F KeepMc=T.
        34035 words used for storage of precomputed grid.
 Two-electron integral symmetry not used.
          MDV=    8053063680 using IRadAn=       1.
          Solving linear equations simultaneously, MaxMat=      72.
 FoF2E skips out because all densities are zero.
 CalDSu exits because no D1Ps are significant.
 FoFJK:  IHMeth= 1 ICntrl=       0 DoSepK=F KAlg= 0 I1Cent=           0 FoldK=F
 IRaf= 690000000 NMat=      72 IRICut=       1 DoRegI=T DoRafI=F ISym2E= 0 IDoP0=0 IntGTp=1.
 FoFCou: FMM=T IPFlag=           0 FMFlag=      100000 FMFlg1=        2001
         NFxFlg=           0 DoJE=F BraDBF=F KetDBF=F FulRan=T
         wScrn=  0.000000 ICntrl=         0 IOpCl=  0 I1Cent=           0 NGrid=           0
         NMat0=   72 NMatS0=     72 NMatT0=    0 NMatD0=   72 NMtDS0=    0 NMtDT0=    0
 Symmetry not used in FoFCou.
 FMM levels:  10  Number of levels for PrismC:   9
          There are   339 degrees of freedom in the 1st order CPHF.  IDoFFX=6 NUNeed=     0.
    335 vectors produced by pass  0 Test12= 2.39D-13 1.00D-09 XBig12= 1.93D-01 1.20D-01.
 AX will form    72 AO Fock derivatives at one time.
    333 vectors produced by pass  1 Test12= 2.39D-13 1.00D-09 XBig12= 7.34D-02 1.15D-01.
    333 vectors produced by pass  2 Test12= 2.39D-13 1.00D-09 XBig12= 2.23D-03 6.84D-03.
    333 vectors produced by pass  3 Test12= 2.39D-13 1.00D-09 XBig12= 2.76D-05 5.90D-04.
    333 vectors produced by pass  4 Test12= 2.39D-13 1.00D-09 XBig12= 3.00D-07 4.42D-05.
    333 vectors produced by pass  5 Test12= 2.39D-13 1.00D-09 XBig12= 1.50D-09 2.06D-06.
    212 vectors produced by pass  6 Test12= 2.39D-13 1.00D-09 XBig12= 4.90D-12 1.19D-07.
     15 vectors produced by pass  7 Test12= 2.39D-13 1.00D-09 XBig12= 1.34D-14 6.39D-09.
      4 vectors produced by pass  8 Test12= 2.39D-13 1.00D-09 XBig12= 5.76D-15 2.74D-09.
      4 vectors produced by pass  9 Test12= 2.39D-13 1.00D-09 XBig12= 1.83D-14 3.77D-09.
      4 vectors produced by pass 10 Test12= 2.39D-13 1.00D-09 XBig12= 1.20D-14 2.70D-09.
      3 vectors produced by pass 11 Test12= 2.39D-13 1.00D-09 XBig12= 7.29D-15 2.25D-09.
      1 vectors produced by pass 12 Test12= 2.39D-13 1.00D-09 XBig12= 2.88D-15 1.33D-09.
 InvSVY:  IOpt=1 It=  1 EMax= 5.55D-16
 Solved reduced A of dimension  2243 with   339 vectors.
 End of Minotr F.D. properties file   721 does not exist.
 End of Minotr F.D. properties file   722 does not exist.
 End of Minotr F.D. properties file   788 does not exist.
 Leave Link 1002 at Tue Nov 15 23:50:24 2022, MaxMem=  8053063680 cpu:          147278.9 elap:            9206.4
 (Enter /project/chenjingdan/g16/l601.exe)
 Copying SCF densities to generalized density rwf, IOpCl= 0 IROHF=0.
 Hyperfine terms turned off by default for NAtoms > 100.

 **********************************************************************

            Population analysis using the SCF Density.

 **********************************************************************

 Alpha  occ. eigenvalues --  -78.20654 -25.30587 -25.30350 -25.30169 -25.28099
 Alpha  occ. eigenvalues --  -25.28051 -19.71238 -19.70670 -19.69623 -19.68377
 Alpha  occ. eigenvalues --  -19.68043 -19.67669 -19.67414 -19.66841 -19.63304
 Alpha  occ. eigenvalues --  -19.61455 -15.01358 -14.84722 -10.81489 -10.73992
 Alpha  occ. eigenvalues --  -10.71828 -10.71584 -10.66064 -10.62896 -10.62681
 Alpha  occ. eigenvalues --  -10.61527 -10.61350 -10.60744 -10.59542 -10.59437
 Alpha  occ. eigenvalues --  -10.58776 -10.58727 -10.57379 -10.56072 -10.55930
 Alpha  occ. eigenvalues --  -10.55801 -10.55716 -10.55628 -10.55607 -10.55597
 Alpha  occ. eigenvalues --  -10.55514 -10.55505 -10.55381 -10.55377 -10.55365
 Alpha  occ. eigenvalues --  -10.55201 -10.55168 -10.55148 -10.55138 -10.55086
 Alpha  occ. eigenvalues --  -10.55085 -10.55071 -10.55039 -10.55016 -10.54715
 Alpha  occ. eigenvalues --  -10.54701 -10.54093 -10.53949 -10.53909 -10.53905
 Alpha  occ. eigenvalues --  -10.53534 -10.53490 -10.53488 -10.53074 -10.52979
 Alpha  occ. eigenvalues --  -10.52702  -6.98678  -5.10496  -5.10418  -5.10339
 Alpha  occ. eigenvalues --   -1.47808  -1.41656  -1.38393  -1.38185  -1.36696
 Alpha  occ. eigenvalues --   -1.35416  -1.26891  -1.23969  -1.23201  -1.22959
 Alpha  occ. eigenvalues --   -1.17987  -1.17655  -1.16258  -1.12911  -1.09635
 Alpha  occ. eigenvalues --   -1.08272  -1.01181  -0.99730  -0.97549  -0.96676
 Alpha  occ. eigenvalues --   -0.95810  -0.94115  -0.93001  -0.92242  -0.90443
 Alpha  occ. eigenvalues --   -0.89973  -0.88034  -0.87978  -0.87463  -0.87137
 Alpha  occ. eigenvalues --   -0.87030  -0.85581  -0.83870  -0.83750  -0.82685
 Alpha  occ. eigenvalues --   -0.82145  -0.81777  -0.79171  -0.78684  -0.78639
 Alpha  occ. eigenvalues --   -0.78409  -0.77049  -0.76251  -0.76180  -0.76074
 Alpha  occ. eigenvalues --   -0.75865  -0.75704  -0.72952  -0.72381  -0.71492
 Alpha  occ. eigenvalues --   -0.71381  -0.70770  -0.70569  -0.70433  -0.69977
 Alpha  occ. eigenvalues --   -0.69260  -0.69133  -0.67393  -0.67370  -0.66962
 Alpha  occ. eigenvalues --   -0.65772  -0.65384  -0.64814  -0.64428  -0.64178
 Alpha  occ. eigenvalues --   -0.63974  -0.63377  -0.63111  -0.62457  -0.62091
 Alpha  occ. eigenvalues --   -0.61324  -0.60969  -0.60409  -0.59904  -0.59625
 Alpha  occ. eigenvalues --   -0.58351  -0.58018  -0.57787  -0.57579  -0.57226
 Alpha  occ. eigenvalues --   -0.57007  -0.56903  -0.56518  -0.56179  -0.56002
 Alpha  occ. eigenvalues --   -0.55529  -0.55277  -0.55152  -0.54922  -0.54546
 Alpha  occ. eigenvalues --   -0.54358  -0.53927  -0.53654  -0.53452  -0.53186
 Alpha  occ. eigenvalues --   -0.52942  -0.52498  -0.52377  -0.51707  -0.51525
 Alpha  occ. eigenvalues --   -0.51257  -0.51122  -0.50617  -0.50477  -0.50079
 Alpha  occ. eigenvalues --   -0.49734  -0.49277  -0.49108  -0.48816  -0.48745
 Alpha  occ. eigenvalues --   -0.48587  -0.48524  -0.48103  -0.47687  -0.47474
 Alpha  occ. eigenvalues --   -0.47236  -0.46859  -0.46740  -0.46665  -0.46474
 Alpha  occ. eigenvalues --   -0.46383  -0.46179  -0.46000  -0.45863  -0.45681
 Alpha  occ. eigenvalues --   -0.45517  -0.45414  -0.45377  -0.45183  -0.44913
 Alpha  occ. eigenvalues --   -0.44735  -0.44481  -0.43955  -0.43417  -0.43192
 Alpha  occ. eigenvalues --   -0.42917  -0.42515  -0.42412  -0.41934  -0.41687
 Alpha  occ. eigenvalues --   -0.41642  -0.41542  -0.41347  -0.41329  -0.41021
 Alpha  occ. eigenvalues --   -0.40764  -0.39928  -0.39695  -0.39329  -0.39064
 Alpha  occ. eigenvalues --   -0.38934  -0.38768  -0.38704  -0.38392  -0.38181
 Alpha  occ. eigenvalues --   -0.37960  -0.37720  -0.37572  -0.37462  -0.37337
 Alpha  occ. eigenvalues --   -0.37094  -0.37045  -0.36449  -0.34631  -0.31433
 Alpha  occ. eigenvalues --   -0.30159  -0.29849  -0.29580  -0.28778  -0.28331
 Alpha  occ. eigenvalues --   -0.28245  -0.27983  -0.27076  -0.26807
 Alpha virt. eigenvalues --   -0.06135  -0.00178   0.00426   0.01524   0.01736
 Alpha virt. eigenvalues --    0.02557   0.02808   0.03206   0.04086   0.04593
 Alpha virt. eigenvalues --    0.04701   0.05194   0.06243   0.09203   0.10157
 Alpha virt. eigenvalues --    0.10658   0.12253   0.12971   0.13402   0.13775
 Alpha virt. eigenvalues --    0.13959   0.14130   0.14200   0.14842   0.15420
 Alpha virt. eigenvalues --    0.15676   0.15990   0.16361   0.16549   0.16638
 Alpha virt. eigenvalues --    0.17026   0.17410   0.17521   0.17628   0.17803
 Alpha virt. eigenvalues --    0.18110   0.18466   0.18520   0.18760   0.19139
 Alpha virt. eigenvalues --    0.19236   0.19597   0.19689   0.19954   0.20269
 Alpha virt. eigenvalues --    0.20715   0.21033   0.21168   0.21281   0.21311
 Alpha virt. eigenvalues --    0.21484   0.21622   0.21782   0.22242   0.22297
 Alpha virt. eigenvalues --    0.22325   0.22654   0.22912   0.23074   0.23422
 Alpha virt. eigenvalues --    0.23855   0.24017   0.24361   0.24687   0.24831
 Alpha virt. eigenvalues --    0.24958   0.25205   0.25410   0.25523   0.25804
 Alpha virt. eigenvalues --    0.26331   0.26569   0.26728   0.27502   0.27616
 Alpha virt. eigenvalues --    0.27963   0.28319   0.28568   0.28656   0.28773
 Alpha virt. eigenvalues --    0.29040   0.29196   0.29414   0.29706   0.30237
 Alpha virt. eigenvalues --    0.30434   0.30907   0.31175   0.31272   0.31548
 Alpha virt. eigenvalues --    0.31710   0.31976   0.32126   0.32376   0.32795
 Alpha virt. eigenvalues --    0.32829   0.33214   0.33559   0.34012   0.34489
 Alpha virt. eigenvalues --    0.34732   0.35582   0.35652   0.36742   0.37115
 Alpha virt. eigenvalues --    0.37482   0.37683   0.38644   0.39433   0.40050
 Alpha virt. eigenvalues --    0.40262   0.40536   0.41075   0.41244   0.41567
 Alpha virt. eigenvalues --    0.41940   0.42137   0.42411   0.42885   0.42992
 Alpha virt. eigenvalues --    0.43538   0.43703   0.43853   0.44489   0.45068
 Alpha virt. eigenvalues --    0.45492   0.46290   0.46524   0.46922   0.47428
 Alpha virt. eigenvalues --    0.48712   0.49315   0.50090   0.50685   0.51256
 Alpha virt. eigenvalues --    0.51804   0.51921   0.52469   0.52872   0.53288
 Alpha virt. eigenvalues --    0.53849   0.54130   0.54278   0.54509   0.54707
 Alpha virt. eigenvalues --    0.55271   0.55589   0.55711   0.55858   0.56236
 Alpha virt. eigenvalues --    0.56532   0.56765   0.57022   0.57119   0.57543
 Alpha virt. eigenvalues --    0.57908   0.58232   0.58623   0.59041   0.59271
 Alpha virt. eigenvalues --    0.59350   0.59470   0.59680   0.59826   0.60425
 Alpha virt. eigenvalues --    0.60488   0.60753   0.61035   0.61329   0.61463
 Alpha virt. eigenvalues --    0.61475   0.62011   0.62131   0.62403   0.62817
 Alpha virt. eigenvalues --    0.62943   0.63138   0.63590   0.63789   0.64165
 Alpha virt. eigenvalues --    0.64338   0.64559   0.65023   0.65106   0.65382
 Alpha virt. eigenvalues --    0.65576   0.66014   0.66222   0.66289   0.66800
 Alpha virt. eigenvalues --    0.67009   0.67414   0.67601   0.68155   0.68295
 Alpha virt. eigenvalues --    0.68692   0.68842   0.69252   0.69379   0.70050
 Alpha virt. eigenvalues --    0.70252   0.70759   0.70879   0.71363   0.71455
 Alpha virt. eigenvalues --    0.71896   0.72189   0.72641   0.72800   0.73249
 Alpha virt. eigenvalues --    0.73417   0.73893   0.74461   0.74811   0.75363
 Alpha virt. eigenvalues --    0.75480   0.75910   0.76392   0.76660   0.77018
 Alpha virt. eigenvalues --    0.77396   0.77465   0.77840   0.78235   0.78365
 Alpha virt. eigenvalues --    0.78641   0.78874   0.79076   0.79372   0.79785
 Alpha virt. eigenvalues --    0.80013   0.80210   0.80483   0.81018   0.81549
 Alpha virt. eigenvalues --    0.81858   0.82538   0.82645   0.82796   0.83001
 Alpha virt. eigenvalues --    0.83536   0.83639   0.83772   0.84169   0.84426
 Alpha virt. eigenvalues --    0.84996   0.85143   0.85432   0.85945   0.86278
 Alpha virt. eigenvalues --    0.86621   0.86981   0.87103   0.87369   0.87560
 Alpha virt. eigenvalues --    0.87787   0.88095   0.88376   0.88495   0.88927
 Alpha virt. eigenvalues --    0.89189   0.89414   0.89463   0.89888   0.90205
 Alpha virt. eigenvalues --    0.90608   0.90697   0.90786   0.91399   0.91712
 Alpha virt. eigenvalues --    0.91815   0.91851   0.92410   0.92516   0.92982
 Alpha virt. eigenvalues --    0.93431   0.93554   0.93858   0.94053   0.94552
 Alpha virt. eigenvalues --    0.94695   0.94925   0.95162   0.95384   0.95876
 Alpha virt. eigenvalues --    0.96071   0.96244   0.96741   0.96863   0.97170
 Alpha virt. eigenvalues --    0.97372   0.97558   0.97640   0.97793   0.98285
 Alpha virt. eigenvalues --    0.98626   0.98751   0.98907   0.99194   0.99845
 Alpha virt. eigenvalues --    1.00153   1.00368   1.01079   1.01222   1.01511
 Alpha virt. eigenvalues --    1.02039   1.02492   1.02715   1.02947   1.03052
 Alpha virt. eigenvalues --    1.03367   1.03669   1.03962   1.04460   1.04585
 Alpha virt. eigenvalues --    1.05077   1.05522   1.05953   1.06251   1.06736
 Alpha virt. eigenvalues --    1.06812   1.07531   1.07842   1.08275   1.08442
 Alpha virt. eigenvalues --    1.08816   1.09288   1.09485   1.09817   1.10658
 Alpha virt. eigenvalues --    1.10802   1.11090   1.11407   1.11531   1.11967
 Alpha virt. eigenvalues --    1.12573   1.12812   1.13033   1.13572   1.13643
 Alpha virt. eigenvalues --    1.14398   1.14506   1.14715   1.15324   1.16045
 Alpha virt. eigenvalues --    1.16634   1.16650   1.16910   1.17394   1.17705
 Alpha virt. eigenvalues --    1.18488   1.18695   1.19205   1.19301   1.19962
 Alpha virt. eigenvalues --    1.20350   1.20660   1.21136   1.21238   1.22008
 Alpha virt. eigenvalues --    1.22366   1.22979   1.23154   1.23499   1.23727
 Alpha virt. eigenvalues --    1.24298   1.24760   1.25439   1.25887   1.26646
 Alpha virt. eigenvalues --    1.26940   1.27222   1.27586   1.27871   1.28376
 Alpha virt. eigenvalues --    1.28626   1.29089   1.29262   1.30013   1.30153
 Alpha virt. eigenvalues --    1.31010   1.31101   1.31373   1.31689   1.32236
 Alpha virt. eigenvalues --    1.32494   1.32767   1.33166   1.33435   1.34285
 Alpha virt. eigenvalues --    1.34426   1.34742   1.35535   1.35987   1.36242
 Alpha virt. eigenvalues --    1.36643   1.37426   1.38203   1.38254   1.38497
 Alpha virt. eigenvalues --    1.38742   1.39053   1.39578   1.39875   1.40346
 Alpha virt. eigenvalues --    1.40564   1.40914   1.41234   1.41710   1.41811
 Alpha virt. eigenvalues --    1.42080   1.42403   1.42850   1.43199   1.43458
 Alpha virt. eigenvalues --    1.43636   1.43794   1.43989   1.44261   1.44590
 Alpha virt. eigenvalues --    1.45054   1.45289   1.45647   1.45874   1.46181
 Alpha virt. eigenvalues --    1.46382   1.46578   1.46835   1.47146   1.47590
 Alpha virt. eigenvalues --    1.47779   1.48471   1.49329   1.49453   1.49677
 Alpha virt. eigenvalues --    1.50512   1.50752   1.51061   1.51353   1.51806
 Alpha virt. eigenvalues --    1.52123   1.52580   1.53483   1.53688   1.54625
 Alpha virt. eigenvalues --    1.55294   1.55484   1.56288   1.56797   1.57798
 Alpha virt. eigenvalues --    1.58281   1.58454   1.59422   1.59811   1.60589
 Alpha virt. eigenvalues --    1.61637   1.62809   1.63505   1.63829   1.64090
 Alpha virt. eigenvalues --    1.64126   1.65218   1.65953   1.66228   1.66580
 Alpha virt. eigenvalues --    1.67101   1.67249   1.67897   1.68166   1.70166
 Alpha virt. eigenvalues --    1.70485   1.71024   1.71762   1.71934   1.72239
 Alpha virt. eigenvalues --    1.72850   1.73026   1.73400   1.74128   1.74261
 Alpha virt. eigenvalues --    1.74805   1.74899   1.75654   1.76187   1.76348
 Alpha virt. eigenvalues --    1.76463   1.77026   1.77235   1.77574   1.77842
 Alpha virt. eigenvalues --    1.78175   1.78615   1.78818   1.79163   1.79589
 Alpha virt. eigenvalues --    1.79745   1.79903   1.80546   1.80890   1.81069
 Alpha virt. eigenvalues --    1.81397   1.81625   1.81802   1.82062   1.82363
 Alpha virt. eigenvalues --    1.82787   1.83097   1.83214   1.83429   1.83877
 Alpha virt. eigenvalues --    1.84227   1.84377   1.84786   1.84807   1.85211
 Alpha virt. eigenvalues --    1.85558   1.85923   1.85935   1.86314   1.86547
 Alpha virt. eigenvalues --    1.86736   1.86984   1.87254   1.87470   1.87529
 Alpha virt. eigenvalues --    1.87775   1.88068   1.88521   1.88634   1.89257
 Alpha virt. eigenvalues --    1.89476   1.89665   1.90194   1.90340   1.90566
 Alpha virt. eigenvalues --    1.90797   1.90947   1.91092   1.91503   1.91944
 Alpha virt. eigenvalues --    1.92432   1.92805   1.93160   1.93258   1.93857
 Alpha virt. eigenvalues --    1.94175   1.94708   1.94939   1.95198   1.95507
 Alpha virt. eigenvalues --    1.95685   1.96138   1.96731   1.96847   1.97137
 Alpha virt. eigenvalues --    1.97737   1.97963   1.98353   1.98565   1.98810
 Alpha virt. eigenvalues --    1.98997   1.99565   2.00492   2.00700   2.00932
 Alpha virt. eigenvalues --    2.01331   2.01571   2.02012   2.02477   2.02581
 Alpha virt. eigenvalues --    2.02903   2.03387   2.03706   2.04436   2.04627
 Alpha virt. eigenvalues --    2.04780   2.05117   2.05363   2.05777   2.05898
 Alpha virt. eigenvalues --    2.06060   2.06467   2.06641   2.06780   2.07300
 Alpha virt. eigenvalues --    2.07547   2.07642   2.07928   2.08407   2.08520
 Alpha virt. eigenvalues --    2.08864   2.09270   2.09594   2.09985   2.10145
 Alpha virt. eigenvalues --    2.10505   2.10790   2.10950   2.11392   2.11520
 Alpha virt. eigenvalues --    2.11774   2.12084   2.12341   2.12611   2.12822
 Alpha virt. eigenvalues --    2.12928   2.13235   2.13468   2.13684   2.13892
 Alpha virt. eigenvalues --    2.14282   2.14686   2.15037   2.15176   2.15504
 Alpha virt. eigenvalues --    2.15569   2.15938   2.16354   2.16478   2.16538
 Alpha virt. eigenvalues --    2.17066   2.17557   2.17611   2.17790   2.18154
 Alpha virt. eigenvalues --    2.18459   2.18579   2.18851   2.19120   2.19557
 Alpha virt. eigenvalues --    2.19712   2.19998   2.20332   2.20676   2.21244
 Alpha virt. eigenvalues --    2.21611   2.21820   2.22055   2.22544   2.22854
 Alpha virt. eigenvalues --    2.23195   2.24042   2.24722   2.25075   2.25480
 Alpha virt. eigenvalues --    2.25585   2.25893   2.26525   2.26896   2.27492
 Alpha virt. eigenvalues --    2.27640   2.27883   2.28405   2.28896   2.29254
 Alpha virt. eigenvalues --    2.29611   2.30251   2.30361   2.30855   2.31128
 Alpha virt. eigenvalues --    2.31431   2.31676   2.31857   2.32417   2.32659
 Alpha virt. eigenvalues --    2.33458   2.33971   2.34918   2.35148   2.35343
 Alpha virt. eigenvalues --    2.35541   2.35765   2.36317   2.37075   2.37572
 Alpha virt. eigenvalues --    2.37986   2.38631   2.39027   2.39512   2.39973
 Alpha virt. eigenvalues --    2.40317   2.40626   2.40762   2.41391   2.41683
 Alpha virt. eigenvalues --    2.41820   2.42319   2.42546   2.42615   2.43043
 Alpha virt. eigenvalues --    2.43115   2.43392   2.43495   2.43702   2.44068
 Alpha virt. eigenvalues --    2.44799   2.44829   2.45654   2.45786   2.46932
 Alpha virt. eigenvalues --    2.47138   2.47206   2.47526   2.47650   2.47892
 Alpha virt. eigenvalues --    2.48300   2.48496   2.49226   2.49809   2.49956
 Alpha virt. eigenvalues --    2.49975   2.50607   2.51330   2.51783   2.52258
 Alpha virt. eigenvalues --    2.52481   2.52929   2.53108   2.53803   2.53895
 Alpha virt. eigenvalues --    2.54575   2.54722   2.55847   2.56043   2.56165
 Alpha virt. eigenvalues --    2.56460   2.57240   2.57707   2.58261   2.58440
 Alpha virt. eigenvalues --    2.58747   2.58837   2.59263   2.60012   2.60099
 Alpha virt. eigenvalues --    2.60799   2.61152   2.61656   2.62132   2.62390
 Alpha virt. eigenvalues --    2.62811   2.63202   2.63666   2.64156   2.64893
 Alpha virt. eigenvalues --    2.64980   2.65211   2.65558   2.65722   2.65873
 Alpha virt. eigenvalues --    2.66014   2.66750   2.67133   2.67502   2.68071
 Alpha virt. eigenvalues --    2.68184   2.68494   2.68805   2.69195   2.69331
 Alpha virt. eigenvalues --    2.69584   2.69965   2.70496   2.70769   2.71530
 Alpha virt. eigenvalues --    2.71830   2.72276   2.72412   2.72829   2.73144
 Alpha virt. eigenvalues --    2.73549   2.74018   2.74368   2.74976   2.75279
 Alpha virt. eigenvalues --    2.75838   2.76206   2.76808   2.77635   2.78382
 Alpha virt. eigenvalues --    2.78866   2.79124   2.79308   2.79712   2.80263
 Alpha virt. eigenvalues --    2.80344   2.80673   2.81025   2.81515   2.81651
 Alpha virt. eigenvalues --    2.81894   2.82073   2.82449   2.82973   2.83298
 Alpha virt. eigenvalues --    2.83513   2.84068   2.84590   2.84986   2.85141
 Alpha virt. eigenvalues --    2.85277   2.86269   2.86839   2.87203   2.87739
 Alpha virt. eigenvalues --    2.87954   2.88168   2.88455   2.88660   2.88977
 Alpha virt. eigenvalues --    2.89087   2.89658   2.89950   2.90377   2.90955
 Alpha virt. eigenvalues --    2.91269   2.91576   2.91781   2.92463   2.92912
 Alpha virt. eigenvalues --    2.92981   2.94132   2.94568   2.95454   2.95718
 Alpha virt. eigenvalues --    2.96075   2.96226   2.96546   2.97556   2.98227
 Alpha virt. eigenvalues --    2.99449   3.00411   3.01934   3.02437   3.02839
 Alpha virt. eigenvalues --    3.03100   3.04701   3.05269   3.07051   3.08250
 Alpha virt. eigenvalues --    3.08919   3.09364   3.10359   3.10473   3.10938
 Alpha virt. eigenvalues --    3.11940   3.13491   3.13644   3.14010   3.14565
 Alpha virt. eigenvalues --    3.15695   3.17418   3.17535   3.17976   3.18237
 Alpha virt. eigenvalues --    3.19621   3.19788   3.21022   3.21440   3.22009
 Alpha virt. eigenvalues --    3.22414   3.22890   3.23414   3.23617   3.24257
 Alpha virt. eigenvalues --    3.24426   3.24799   3.25592   3.26587   3.27202
 Alpha virt. eigenvalues --    3.27454   3.27814   3.29151   3.29681   3.30289
 Alpha virt. eigenvalues --    3.30944   3.31147   3.32023   3.32513   3.33080
 Alpha virt. eigenvalues --    3.34696   3.37164   3.39780   3.40715   3.40833
 Alpha virt. eigenvalues --    3.41099   3.42781   3.43456   3.44446   3.44621
 Alpha virt. eigenvalues --    3.44680   3.45249   3.45576   3.45852   3.46379
 Alpha virt. eigenvalues --    3.46568   3.46709   3.47735   3.47973   3.48281
 Alpha virt. eigenvalues --    3.49204   3.49478   3.50916   3.51109   3.52061
 Alpha virt. eigenvalues --    3.52757   3.54636   3.57536   3.62249   3.64641
 Alpha virt. eigenvalues --    3.68590   3.68876   3.73685   3.73936   3.74538
 Alpha virt. eigenvalues --    3.78670   3.91836   3.92757   4.05979   4.09393
 Alpha virt. eigenvalues --    4.12578   4.16018   4.16883   4.18223   4.19067
 Alpha virt. eigenvalues --    4.19969   4.20780   4.21694   4.23277   4.24130
 Alpha virt. eigenvalues --    4.25515   4.25803   4.26410   4.26905   4.29620
 Alpha virt. eigenvalues --    4.30122   4.31070   4.31933   4.35434   4.36376
 Alpha virt. eigenvalues --    4.38138   4.39742   4.40399   4.42389   4.42908
 Alpha virt. eigenvalues --    4.44100   4.45260   4.46975   4.47977   4.48576
 Alpha virt. eigenvalues --    4.50539   4.50750   4.52227   4.53684   4.54471
 Alpha virt. eigenvalues --    4.55565   4.56342   4.59281   4.59644   4.60358
 Alpha virt. eigenvalues --    4.62292   4.63183   4.64640   4.64719   4.65802
 Alpha virt. eigenvalues --    4.69495   4.73878   4.78519   4.84339   4.85020
 Alpha virt. eigenvalues --    4.87551   4.88401   4.90777   4.95984   4.98168
 Alpha virt. eigenvalues --    5.00896   5.06148   5.35469   5.61303   5.81633
          Condensed to atoms (all electrons):
 Mulliken charges:
               1
     1  O   -0.509455
     2  N   -0.540378
     3  O   -0.618711
     4  O   -0.571458
     5  C   -0.331877
     6  N    0.390666
     7  C    0.180946
     8  C    0.649860
     9  C    0.011836
    10  C   -0.172720
    11  C    0.589942
    12  C   -0.128565
    13  C    0.367620
    14  C   -0.123249
    15  C   -0.118351
    16  O   -0.369045
    17  O   -0.400682
    18  H    0.361492
    19  H    0.360378
    20  H    0.453682
    21  H    0.152957
    22  H    0.130137
    23  H    0.158412
    24  H    0.163267
    25  H    0.152016
    26  O   -0.649798
    27  O   -0.622658
    28  C   -0.406799
    29  O   -0.659998
    30  C   -0.409755
    31  C   -0.393329
    32  O   -0.689005
    33  C   -0.399877
    34  C   -0.398725
    35  C   -0.394782
    36  C   -0.205276
    37  C    0.135570
    38  C   -0.145711
    39  C   -0.199743
    40  C    0.096141
    41  C    0.129264
    42  C   -0.059237
    43  C    0.216437
    44  C   -0.138366
    45  C    0.104373
    46  C   -0.208565
    47  C    0.117568
    48  C    0.015964
    49  C   -0.146308
    50  C    0.004046
    51  C    0.213624
    52  C   -0.268487
    53  C   -0.005484
    54  C   -0.149295
    55  C   -0.059744
    56  C    0.034889
    57  C   -0.207782
    58  C   -0.147468
    59  C    0.077023
    60  C   -0.211292
    61  C    0.110870
    62  C    0.089966
    63  C   -0.217277
    64  C   -0.267224
    65  P    1.350267
    66  H    0.392494
    67  H    0.126047
    68  H    0.127520
    69  H    0.146787
    70  H    0.119874
    71  H    0.135239
    72  H    0.160741
    73  H    0.113549
    74  H    0.148783
    75  H    0.127452
    76  H    0.130498
    77  H    0.163525
    78  H    0.111733
    79  H    0.144608
    80  H    0.121845
    81  H    0.135596
    82  H    0.127564
    83  H    0.149787
    84  H    0.115709
    85  H    0.097432
    86  H    0.121183
    87  H    0.098065
    88  H    0.136864
    89  H    0.115186
    90  H    0.126734
    91  H    0.137447
    92  H    0.134727
    93  H    0.119872
    94  H    0.112596
    95  H    0.125263
    96  H    0.103398
    97  H    0.113297
    98  H    0.134754
    99  H    0.138179
   100  H    0.135093
   101  H    0.182767
   102  O   -0.535338
   103  C   -0.013613
   104  H    0.176651
   105  H    0.152359
   106  C    0.515480
   107  C    0.811806
   108  F   -0.281692
   109  F   -0.283990
   110  F   -0.258688
   111  F   -0.243094
   112  F   -0.244826
 Sum of Mulliken charges =  -0.00000
 Mulliken charges with hydrogens summed into heavy atoms:
               1
     1  O   -0.147963
     2  N   -0.179999
     3  O   -0.618711
     4  O   -0.117776
     5  C    0.109629
     6  N    0.390666
     7  C    0.180946
     8  C    0.649860
     9  C    0.011836
    10  C   -0.172720
    11  C    0.589942
    12  C    0.034702
    13  C    0.367620
    14  C    0.028767
    15  C    0.064416
    16  O   -0.369045
    17  O   -0.400682
    26  O   -0.257304
    27  O   -0.622658
    28  C   -0.006446
    29  O   -0.659998
    30  C    0.006098
    31  C   -0.003544
    32  O   -0.689005
    33  C    0.005878
    34  C    0.003324
    35  C   -0.001722
    36  C   -0.107843
    37  C    0.135570
    38  C   -0.024527
    39  C   -0.101678
    40  C    0.096141
    41  C    0.129264
    42  C   -0.059237
    43  C    0.216437
    44  C   -0.138366
    45  C    0.104373
    46  C    0.043485
    47  C    0.117568
    48  C    0.015964
    49  C   -0.019574
    50  C    0.004046
    51  C    0.213624
    52  C    0.003687
    53  C   -0.005484
    54  C   -0.029423
    55  C   -0.059744
    56  C    0.034889
    57  C   -0.095186
    58  C   -0.022204
    59  C    0.077023
    60  C   -0.107894
    61  C    0.110870
    62  C    0.089966
    63  C    0.030773
    64  C    0.006048
    65  P    1.350267
   102  O   -0.535338
   103  C    0.315397
   106  C    0.515480
   107  C    0.811806
   108  F   -0.281692
   109  F   -0.283990
   110  F   -0.258688
   111  F   -0.243094
   112  F   -0.244826
 APT charges:
               1
     1  O   -1.066515
     2  N   -0.235607
     3  O    0.078109
     4  O    0.094943
     5  C   -1.234665
     6  N   -0.651063
     7  C    0.397476
     8  C   -0.126198
     9  C   -0.354618
    10  C   -0.440031
    11  C   -0.086461
    12  C   -0.440621
    13  C   -0.223052
    14  C   -0.575191
    15  C   -0.396517
    16  O   -0.144732
    17  O    0.500530
    18  H    1.399734
    19  H   -0.017835
    20  H    0.450861
    21  H   -0.032392
    22  H    0.705441
    23  H    0.575224
    24  H    0.962393
    25  H   -0.122478
    26  O   -0.296459
    27  O   -0.227329
    28  C   -1.648158
    29  O   -0.440785
    30  C   -1.215671
    31  C   -1.482304
    32  O   -0.701539
    33  C   -1.208782
    34  C   -1.164517
    35  C   -0.896167
    36  C   -0.497834
    37  C   -0.200539
    38  C   -0.475127
    39  C   -0.403182
    40  C    0.513720
    41  C   -0.198288
    42  C   -0.585477
    43  C   -0.290456
    44  C   -0.014021
    45  C   -0.109407
    46  C   -0.974626
    47  C   -0.457368
    48  C    0.263602
    49  C   -0.463338
    50  C   -0.529244
    51  C   -0.470753
    52  C   -1.640312
    53  C   -0.336545
    54  C   -0.460990
    55  C   -0.365379
    56  C    0.428723
    57  C   -0.473139
    58  C   -0.400069
    59  C   -0.249719
    60  C   -0.520478
    61  C   -0.059798
    62  C    0.260268
    63  C   -0.763845
    64  C   -1.529294
    65  P    0.603269
    66  H    0.315487
    67  H    0.220163
    68  H    0.478928
    69  H    1.053179
    70  H    0.926368
    71  H    0.485936
    72  H   -0.102966
    73  H    0.240338
    74  H    0.962921
    75  H    0.358564
    76  H    0.824529
    77  H    0.043067
    78  H    0.404640
    79  H    0.732429
    80  H   -0.021334
    81  H    0.498932
    82  H    0.640516
    83  H   -0.173286
    84  H    0.480691
    85  H    0.504421
    86  H    0.991940
    87  H    0.852375
    88  H    0.153783
    89  H    0.816584
    90  H    0.777003
    91  H    0.788228
    92  H    0.779736
    93  H    1.125397
    94  H    0.539619
    95  H    0.773545
    96  H    0.635025
    97  H    0.840635
    98  H    0.011654
    99  H    0.520090
   100  H    0.928496
   101  H    1.310132
   102  O   -0.376512
   103  C    0.045027
   104  H    0.109920
   105  H    0.080665
   106  C   -0.083100
   107  C    0.028797
   108  F    0.072336
   109  F    0.101820
   110  F    0.466275
   111  F   -0.295442
   112  F   -0.202929
 Sum of APT charges =  -0.00000
 APT charges with hydrogens summed into heavy atoms:
               1
     1  O    0.333219
     2  N   -0.253442
     3  O    0.078109
     4  O    0.545804
     5  C    0.013608
     6  N   -0.651063
     7  C    0.397476
     8  C   -0.126198
     9  C   -0.354618
    10  C   -0.440031
    11  C   -0.086461
    12  C    0.521773
    13  C   -0.223052
    14  C   -0.697669
    15  C    0.913615
    16  O   -0.144732
    17  O    0.500530
    26  O    0.019028
    27  O   -0.227329
    28  C    0.104111
    29  O   -0.440785
    30  C    0.093667
    31  C    0.079519
    32  O   -0.701539
    33  C    0.063454
    34  C    0.045510
    35  C    0.051754
    36  C    0.006587
    37  C   -0.200539
    38  C    0.516813
    39  C    0.449193
    40  C    0.513720
    41  C   -0.198288
    42  C   -0.585477
    43  C   -0.290456
    44  C   -0.014021
    45  C   -0.109407
    46  C   -0.004259
    47  C   -0.457368
    48  C    0.263602
    49  C    0.313665
    50  C   -0.529244
    51  C   -0.470753
    52  C   -0.072348
    53  C   -0.336545
    54  C    0.664407
    55  C   -0.365379
    56  C    0.428723
[...]
 Alpha virt. eigenvalues --    1.30567   1.30858   1.31341   1.31776   1.31894
 Alpha virt. eigenvalues --    1.32369   1.32999   1.33421   1.33666   1.33856
 Alpha virt. eigenvalues --    1.34502   1.35135   1.35542   1.36420   1.36818
 Alpha virt. eigenvalues --    1.36930   1.37565   1.37920   1.38144   1.38323
 Alpha virt. eigenvalues --    1.38943   1.39298   1.40051   1.40238   1.40427
 Alpha virt. eigenvalues --    1.40495   1.40804   1.41194   1.41465   1.41700
 Alpha virt. eigenvalues --    1.42287   1.42613   1.43012   1.43421   1.43796
 Alpha virt. eigenvalues --    1.43850   1.44153   1.44328   1.44562   1.45139
 Alpha virt. eigenvalues --    1.45391   1.45537   1.46082   1.46252   1.46542
 Alpha virt. eigenvalues --    1.46950   1.47016   1.47354   1.47635   1.47950
 Alpha virt. eigenvalues --    1.48381   1.48860   1.49262   1.49707   1.49937
 Alpha virt. eigenvalues --    1.50895   1.51148   1.51415   1.51709   1.51948
 Alpha virt. eigenvalues --    1.52561   1.53208   1.53329   1.54240   1.54354
 Alpha virt. eigenvalues --    1.55301   1.55670   1.56344   1.56650   1.57014
 Alpha virt. eigenvalues --    1.58113   1.58795   1.59528   1.60267   1.60838
 Alpha virt. eigenvalues --    1.61728   1.62597   1.63032   1.63488   1.64033
 Alpha virt. eigenvalues --    1.64588   1.64790   1.65196   1.66432   1.66946
 Alpha virt. eigenvalues --    1.67412   1.67503   1.67937   1.68186   1.69089
 Alpha virt. eigenvalues --    1.70016   1.70814   1.71318   1.72389   1.72859
 Alpha virt. eigenvalues --    1.73162   1.73267   1.73667   1.74296   1.74533
 Alpha virt. eigenvalues --    1.75167   1.75296   1.75704   1.76067   1.76395
 Alpha virt. eigenvalues --    1.76637   1.76679   1.77319   1.77665   1.77844
 Alpha virt. eigenvalues --    1.77976   1.78809   1.79065   1.79204   1.79817
 Alpha virt. eigenvalues --    1.80168   1.80279   1.80382   1.80755   1.81009
 Alpha virt. eigenvalues --    1.81451   1.81657   1.82150   1.82281   1.82456
 Alpha virt. eigenvalues --    1.82780   1.83339   1.83525   1.83762   1.83808
 Alpha virt. eigenvalues --    1.83964   1.84565   1.84959   1.85090   1.85391
 Alpha virt. eigenvalues --    1.85577   1.86136   1.86403   1.86589   1.86844
 Alpha virt. eigenvalues --    1.87222   1.87227   1.87511   1.87781   1.87906
 Alpha virt. eigenvalues --    1.88216   1.88599   1.89017   1.89455   1.89758
 Alpha virt. eigenvalues --    1.89829   1.90081   1.90459   1.90515   1.90998
 Alpha virt. eigenvalues --    1.91055   1.91377   1.91774   1.91817   1.92427
 Alpha virt. eigenvalues --    1.92736   1.92857   1.93331   1.93713   1.93789
 Alpha virt. eigenvalues --    1.94025   1.94808   1.95024   1.95489   1.95609
 Alpha virt. eigenvalues --    1.96093   1.96131   1.96296   1.96935   1.97062
 Alpha virt. eigenvalues --    1.97417   1.97862   1.98426   1.98672   1.98843
 Alpha virt. eigenvalues --    1.99224   1.99756   1.99959   2.00758   2.01055
 Alpha virt. eigenvalues --    2.01120   2.01527   2.01995   2.02209   2.03206
 Alpha virt. eigenvalues --    2.03247   2.03629   2.03801   2.04204   2.04898
 Alpha virt. eigenvalues --    2.05219   2.05303   2.05456   2.05982   2.06181
 Alpha virt. eigenvalues --    2.06395   2.06722   2.07171   2.07459   2.07502
 Alpha virt. eigenvalues --    2.07753   2.07851   2.08114   2.08427   2.08780
 Alpha virt. eigenvalues --    2.09094   2.09272   2.09507   2.10043   2.10404
 Alpha virt. eigenvalues --    2.10643   2.10788   2.11009   2.11513   2.11617
 Alpha virt. eigenvalues --    2.12046   2.12259   2.12560   2.12774   2.12935
 Alpha virt. eigenvalues --    2.13275   2.13378   2.13665   2.13959   2.13996
 Alpha virt. eigenvalues --    2.14362   2.14460   2.14937   2.15286   2.15790
 Alpha virt. eigenvalues --    2.16215   2.16480   2.16596   2.16745   2.16912
 Alpha virt. eigenvalues --    2.17351   2.17416   2.18042   2.18136   2.18330
 Alpha virt. eigenvalues --    2.18518   2.18887   2.19034   2.19305   2.19508
 Alpha virt. eigenvalues --    2.19948   2.20311   2.20440   2.20895   2.21401
 Alpha virt. eigenvalues --    2.21585   2.22055   2.22617   2.22991   2.23485
 Alpha virt. eigenvalues --    2.23522   2.24125   2.24402   2.24961   2.25301
 Alpha virt. eigenvalues --    2.25562   2.25983   2.26736   2.27103   2.27735
 Alpha virt. eigenvalues --    2.27904   2.28270   2.28477   2.28882   2.29203
 Alpha virt. eigenvalues --    2.29462   2.30212   2.30513   2.30607   2.31174
 Alpha virt. eigenvalues --    2.31582   2.31744   2.32095   2.32255   2.32459
 Alpha virt. eigenvalues --    2.32915   2.33595   2.34526   2.35149   2.35485
 Alpha virt. eigenvalues --    2.35774   2.35946   2.36643   2.36835   2.37666
 Alpha virt. eigenvalues --    2.37781   2.38258   2.38966   2.39277   2.39537
 Alpha virt. eigenvalues --    2.40446   2.40815   2.40917   2.41335   2.41743
 Alpha virt. eigenvalues --    2.42100   2.42185   2.42526   2.42716   2.43479
 Alpha virt. eigenvalues --    2.43712   2.43813   2.43864   2.44432   2.44460
 Alpha virt. eigenvalues --    2.44965   2.45164   2.45334   2.45650   2.46265
 Alpha virt. eigenvalues --    2.46520   2.47337   2.47432   2.48016   2.48102
 Alpha virt. eigenvalues --    2.48514   2.48686   2.49029   2.49181   2.50004
 Alpha virt. eigenvalues --    2.50332   2.50808   2.50894   2.51378   2.52027
 Alpha virt. eigenvalues --    2.52373   2.53113   2.53345   2.53662   2.53889
 Alpha virt. eigenvalues --    2.54183   2.54662   2.55190   2.55944   2.56691
 Alpha virt. eigenvalues --    2.56886   2.57049   2.57614   2.57982   2.58537
 Alpha virt. eigenvalues --    2.58801   2.59160   2.59231   2.59979   2.60589
 Alpha virt. eigenvalues --    2.60738   2.61495   2.61715   2.62425   2.62511
 Alpha virt. eigenvalues --    2.62944   2.63356   2.63858   2.63965   2.64606
 Alpha virt. eigenvalues --    2.65193   2.65434   2.65648   2.66050   2.66378
 Alpha virt. eigenvalues --    2.66428   2.66939   2.67368   2.67971   2.68088
 Alpha virt. eigenvalues --    2.68367   2.68547   2.69039   2.69423   2.69853
 Alpha virt. eigenvalues --    2.70243   2.70582   2.70882   2.70972   2.71659
 Alpha virt. eigenvalues --    2.71723   2.72061   2.72645   2.72834   2.73123
 Alpha virt. eigenvalues --    2.73691   2.73946   2.74228   2.74460   2.74855
 Alpha virt. eigenvalues --    2.75449   2.75810   2.76310   2.77101   2.78095
 Alpha virt. eigenvalues --    2.78518   2.79058   2.79661   2.79971   2.80463
 Alpha virt. eigenvalues --    2.80926   2.81168   2.81322   2.81605   2.81957
 Alpha virt. eigenvalues --    2.82199   2.82327   2.82895   2.83362   2.83812
 Alpha virt. eigenvalues --    2.84130   2.84416   2.84721   2.85596   2.85898
 Alpha virt. eigenvalues --    2.86090   2.86742   2.87159   2.87719   2.87801
 Alpha virt. eigenvalues --    2.88430   2.88475   2.88883   2.89014   2.89258
 Alpha virt. eigenvalues --    2.89478   2.90071   2.90235   2.90506   2.90886
 Alpha virt. eigenvalues --    2.91368   2.91774   2.92036   2.92697   2.92789
 Alpha virt. eigenvalues --    2.93395   2.93560   2.94138   2.94991   2.95591
 Alpha virt. eigenvalues --    2.95964   2.96787   2.97127   2.98032   2.98222
 Alpha virt. eigenvalues --    3.00072   3.01394   3.01701   3.02929   3.03698
 Alpha virt. eigenvalues --    3.03993   3.05343   3.06888   3.07848   3.08132
 Alpha virt. eigenvalues --    3.09187   3.09632   3.10058   3.10973   3.11125
 Alpha virt. eigenvalues --    3.11489   3.13085   3.13981   3.14467   3.14630
 Alpha virt. eigenvalues --    3.15365   3.16445   3.17937   3.18052   3.19190
 Alpha virt. eigenvalues --    3.19348   3.20031   3.20112   3.20573   3.21895
 Alpha virt. eigenvalues --    3.22248   3.23143   3.23570   3.23603   3.24068
 Alpha virt. eigenvalues --    3.24906   3.25056   3.25366   3.26051   3.27001
 Alpha virt. eigenvalues --    3.28008   3.28381   3.28871   3.30096   3.30740
 Alpha virt. eigenvalues --    3.31646   3.31894   3.32612   3.32986   3.33736
 Alpha virt. eigenvalues --    3.35321   3.37249   3.38101   3.39686   3.40633
 Alpha virt. eigenvalues --    3.41120   3.41292   3.42614   3.43272   3.44198
 Alpha virt. eigenvalues --    3.45018   3.45167   3.45750   3.45994   3.46245
 Alpha virt. eigenvalues --    3.46661   3.47123   3.47356   3.48197   3.48770
 Alpha virt. eigenvalues --    3.49184   3.49583   3.50321   3.50962   3.51644
 Alpha virt. eigenvalues --    3.52692   3.54565   3.57271   3.59926   3.64022
 Alpha virt. eigenvalues --    3.68719   3.69250   3.73585   3.74507   3.75145
 Alpha virt. eigenvalues --    3.78559   3.91719   3.92603   4.03628   4.09098
 Alpha virt. eigenvalues --    4.10584   4.13610   4.16057   4.18505   4.19137
 Alpha virt. eigenvalues --    4.20408   4.21249   4.21587   4.22110   4.23216
 Alpha virt. eigenvalues --    4.24888   4.25599   4.26272   4.27320   4.27634
 Alpha virt. eigenvalues --    4.29830   4.31377   4.32101   4.32950   4.36550
 Alpha virt. eigenvalues --    4.37831   4.40332   4.40583   4.42607   4.42800
 Alpha virt. eigenvalues --    4.44521   4.44815   4.46279   4.47952   4.48587
 Alpha virt. eigenvalues --    4.49622   4.50838   4.52352   4.53067   4.53807
 Alpha virt. eigenvalues --    4.56220   4.56878   4.57790   4.59499   4.60217
 Alpha virt. eigenvalues --    4.62494   4.63713   4.65037   4.65405   4.66090
 Alpha virt. eigenvalues --    4.69777   4.74802   4.78279   4.81100   4.85603
 Alpha virt. eigenvalues --    4.87761   4.89349   4.91156   4.97081   4.98730
 Alpha virt. eigenvalues --    5.02227   5.06642   5.35719   5.62261   5.81655
          Condensed to atoms (all electrons):
 Mulliken charges:
               1
     1  O   -0.479644
     2  N   -0.568232
     3  O   -0.563995
     4  O   -0.553713
     5  C   -0.341612
     6  N    0.391770
     7  C    0.182374
     8  C    0.655176
     9  C    0.014361
    10  C   -0.102285
    11  C    0.607996
    12  C   -0.127807
    13  C    0.366759
    14  C   -0.115263
    15  C   -0.119171
    16  O   -0.366342
    17  O   -0.400107
    18  H    0.371057
    19  H    0.389144
    20  H    0.441753
    21  H    0.180482
    22  H    0.130155
    23  H    0.163741
    24  H    0.162805
    25  H    0.160784
    26  O   -0.660997
    27  O   -0.630134
    28  C   -0.405495
    29  O   -0.675805
    30  C   -0.410352
    31  C   -0.391350
    32  O   -0.719949
    33  C   -0.389249
    34  C   -0.398349
    35  C   -0.395689
    36  C   -0.208319
    37  C    0.131783
    38  C   -0.148252
    39  C   -0.202417
    40  C    0.091709
    41  C    0.123564
    42  C   -0.049540
    43  C    0.234432
    44  C   -0.136947
    45  C    0.105540
    46  C   -0.208651
    47  C    0.116595
    48  C    0.015296
    49  C   -0.147228
    50  C    0.010922
    51  C    0.225028
    52  C   -0.268101
    53  C   -0.016100
    54  C   -0.152360
    55  C   -0.056318
    56  C    0.038811
    57  C   -0.208732
    58  C   -0.148357
    59  C    0.074229
    60  C   -0.216527
    61  C    0.122685
    62  C    0.089592
    63  C   -0.216897
    64  C   -0.266794
    65  P    1.317398
    66  H    0.297897
    67  H    0.122661
    68  H    0.122822
    69  H    0.147634
    70  H    0.115728
    71  H    0.135520
    72  H    0.165973
    73  H    0.113815
    74  H    0.149599
    75  H    0.118946
    76  H    0.126605
    77  H    0.179538
    78  H    0.087203
    79  H    0.144580
    80  H    0.124797
    81  H    0.133073
    82  H    0.127810
    83  H    0.153932
    84  H    0.112320
    85  H    0.094703
    86  H    0.116758
    87  H    0.094653
    88  H    0.137288
    89  H    0.111864
    90  H    0.122426
    91  H    0.134211
    92  H    0.131667
    93  H    0.114944
    94  H    0.110760
    95  H    0.119201
    96  H    0.089186
    97  H    0.110730
    98  H    0.132754
    99  H    0.135127
   100  H    0.132583
   101  H    0.183775
   102  O   -0.534523
   103  C   -0.017149
   104  H    0.176042
   105  H    0.158888
   106  C    0.514397
   107  C    0.814270
   108  F   -0.282347
   109  F   -0.285332
   110  F   -0.259802
   111  F   -0.243494
   112  F   -0.242892
 Sum of Mulliken charges =  -0.00000
 Mulliken charges with hydrogens summed into heavy atoms:
               1
     1  O   -0.108587
     2  N   -0.179088
     3  O   -0.563995
     4  O   -0.111960
     5  C    0.132767
     6  N    0.391770
     7  C    0.182374
     8  C    0.655176
     9  C    0.014361
    10  C    0.195612
    11  C    0.607996
    12  C    0.034998
    13  C    0.366759
    14  C    0.045522
    15  C    0.064603
    16  O   -0.366342
    17  O   -0.400107
    26  O   -0.660997
    27  O   -0.630134
    28  C   -0.012377
    29  O   -0.675805
    30  C    0.006870
    31  C   -0.008990
    32  O   -0.719949
    33  C    0.004098
    34  C    0.004100
    35  C   -0.001627
    36  C   -0.113616
    37  C    0.131783
    38  C   -0.031494
    39  C   -0.107764
    40  C    0.091709
    41  C    0.123564
    42  C   -0.049540
    43  C    0.234432
    44  C   -0.136947
    45  C    0.105540
    46  C    0.040501
    47  C    0.116595
    48  C    0.015296
    49  C   -0.024801
    50  C    0.010922
    51  C    0.225028
    52  C   -0.002223
    53  C   -0.016100
    54  C   -0.037416
    55  C   -0.056318
    56  C    0.038811
    57  C   -0.097972
    58  C   -0.029155
    59  C    0.074229
    60  C   -0.127341
    61  C    0.122685
    62  C    0.089592
    63  C    0.026587
    64  C    0.000916
    65  P    1.317398
   102  O   -0.534523
   103  C    0.317781
   106  C    0.514397
   107  C    0.814270
   108  F   -0.282347
   109  F   -0.285332
   110  F   -0.259802
   111  F   -0.243494
   112  F   -0.242892
 APT charges:
               1
     1  O   -1.139112
     2  N   -0.225612
     3  O    0.275127
     4  O    0.015737
     5  C   -1.242359
     6  N   -0.643214
     7  C    0.383092
     8  C   -0.371213
     9  C   -0.335699
    10  C   -0.209434
    11  C   -0.073810
    12  C   -0.458473
    13  C   -0.212193
    14  C   -0.576040
    15  C   -0.390950
    16  O   -0.141838
    17  O    0.493870
    18  H    1.531150
    19  H    0.008730
    20  H    0.586239
    21  H   -0.068580
    22  H    0.687880
    23  H    0.652188
    24  H    0.962597
    25  H   -0.110238
    26  O   -0.273838
    27  O   -0.259057
    28  C   -1.655531
    29  O   -0.469270
    30  C   -1.205425
    31  C   -1.483873
    32  O   -0.742029
    33  C   -1.189060
    34  C   -1.158475
    35  C   -0.872984
    36  C   -0.489910
    37  C   -0.210341
    38  C   -0.481428
    39  C   -0.398455
    40  C    0.524172
    41  C   -0.198332
    42  C   -0.597559
    43  C   -0.274601
    44  C   -0.009204
    45  C   -0.100987
    46  C   -0.961592
    47  C   -0.469909
    48  C    0.271657
    49  C   -0.458780
    50  C   -0.521052
    51  C   -0.461754
    52  C   -1.633197
    53  C   -0.335757
    54  C   -0.452168
    55  C   -0.371044
    56  C    0.430701
    57  C   -0.475949
    58  C   -0.399409
    59  C   -0.257090
    60  C   -0.517575
    61  C   -0.046549
    62  C    0.258139
    63  C   -0.764348
    64  C   -1.523062
    65  P    0.548607
    66  H    0.107181
    67  H    0.218082
    68  H    0.480044
    69  H    1.054242
    70  H    0.919921
    71  H    0.489477
    72  H   -0.109272
    73  H    0.233137
    74  H    0.961697
    75  H    0.362318
    76  H    0.817317
    77  H    0.042954
    78  H    0.395201
    79  H    0.731679
    80  H   -0.020719
    81  H    0.491733
    82  H    0.605225
    83  H   -0.174327
    84  H    0.494912
    85  H    0.493123
    86  H    0.985545
    87  H    0.854333
    88  H    0.146286
    89  H    0.811078
    90  H    0.771685
    91  H    0.780489
    92  H    0.776549
    93  H    1.114601
    94  H    0.529914
    95  H    0.759375
    96  H    0.628268
    97  H    0.837947
    98  H    0.010625
    99  H    0.515424
   100  H    0.924221
   101  H    1.302179
   102  O   -0.378312
   103  C    0.037201
   104  H    0.112798
   105  H    0.089556
   106  C   -0.081659
   107  C    0.026718
   108  F    0.069026
   109  F    0.094965
   110  F    0.461589
   111  F   -0.294470
   112  F   -0.191383
 Sum of APT charges =  -0.00000
 APT charges with hydrogens summed into heavy atoms:
               1
     1  O    0.392038
     2  N   -0.216882
     3  O    0.275127
     4  O    0.601976
     5  C    0.029128
     6  N   -0.643214
     7  C    0.383092
     8  C   -0.371213
     9  C   -0.335699
    10  C   -0.102253
    11  C   -0.073810
    12  C    0.504125
    13  C   -0.212193
    14  C   -0.686278
    15  C    0.911229
    16  O   -0.141838
    17  O    0.493870
    26  O   -0.273838
    27  O   -0.259057
    28  C    0.096837
    29  O   -0.469270
    30  C    0.094701
    31  C    0.073279
    32  O   -0.742029
    33  C    0.066412
    34  C    0.044218
    35  C    0.052825
    36  C    0.003212
    37  C   -0.210341
    38  C    0.504117
    39  C    0.455878
    40  C    0.524172
    41  C   -0.198332
    42  C   -0.597559
    43  C   -0.274601
    44  C   -0.009204
    45  C   -0.100987
    46  C   -0.004228
    47  C   -0.469909
    48  C    0.271657
    49  C    0.312905
    50  C   -0.521052
    51  C   -0.461754
    52  C   -0.076158
    53  C   -0.335757
    54  C    0.662433
    55  C   -0.371044
    56  C    0.430701
    57  C    0.053965
    58  C    0.359966
    59  C   -0.257090
    60  C    0.110693
    61  C   -0.046549
    62  C    0.258139
    63  C    0.084225
    64  C   -0.083417
    65  P    0.548607
   102  O   -0.378312
   103  C    0.239554
   106  C   -0.081659
   107  C    0.026718
   108  F    0.069026
   109  F    0.094965
   110  F    0.461589
   111  F   -0.294470
   112  F   -0.191383
 Electronic spatial extent (au):  <R**2>=          38067.5057
 Charge=             -0.0000 electrons
 Dipole moment (field-independent basis, Debye):
    X=              0.0063    Y=              8.3061    Z=              3.8026  Tot=              9.1352
 Quadrupole moment (field-independent basis, Debye-Ang):
   XX=           -378.9017   YY=           -359.9688   ZZ=           -382.3931
   XY=            -37.9708   XZ=             -8.7240   YZ=             -0.8395
 Traceless Quadrupole moment (field-independent basis, Debye-Ang):
   XX=             -5.1472   YY=             13.7858   ZZ=             -8.6386
   XY=            -37.9708   XZ=             -8.7240   YZ=             -0.8395
 Octapole moment (field-independent basis, Debye-Ang**2):
  XXX=             22.4979  YYY=            148.2299  ZZZ=             -9.2627  XYY=              3.6430
  XXY=             27.1452  XXZ=             62.9780  XZZ=             47.4509  YZZ=             24.7992
  YYZ=             82.4502  XYZ=             44.0784
 Hexadecapole moment (field-independent basis, Debye-Ang**3):
 XXXX=         -22124.4114 YYYY=         -13943.3628 ZZZZ=         -12390.4547 XXXY=           -735.2215
 XXXZ=           -220.0984 YYYX=           -381.7058 YYYZ=            752.7099 ZZZX=             28.7309
 ZZZY=            486.7396 XXYY=          -6377.1054 XXZZ=          -6061.9920 YYZZ=          -4413.1943
 XXYZ=           -168.0068 YYXZ=           -231.7901 ZZXY=           -299.9559
 N-N= 1.248783787274D+04 E-N=-3.330149700545D+04  KE= 3.530887570003D+03
  Exact polarizability:       0.000       0.000       0.000       0.000       0.000       0.000
 Approx polarizability:     736.379     -59.758     709.971      63.946      43.928     646.005
 Leave Link  601 at Wed Nov 16 14:00:23 2022, MaxMem=  8053063680 cpu:               7.6 elap:               0.6
 (Enter /project/chenjingdan/g16/l9999.exe)

 This type of calculation cannot be archived.


 My opinions may have changed, but not the fact that I am right.
                       -- Ashleigh Brilliant
 Job cpu time:       4 days  7 hours 46 minutes 57.1 seconds.
 Elapsed time:       0 days  6 hours 30 minutes  7.6 seconds.
 File lengths (MBytes):  RWF=    986 Int=      0 D2E=      0 Chk=    123 Scr=      1
 Normal termination of Gaussian 16 at Wed Nov 16 14:00:24 2022.
