 Entering Gaussian System, Link 0=g16
 Initial command:
 /project/chenjingdan/g16/l1.exe "/scratch/chenjingdan/scratch/Gau-271853.inp" -scrdir="/scratch/chenjingdan/scratch/"
 Entering Link 1 = /project/chenjingdan/g16/l1.exe PID=    271854.
  
 Copyright (c) 1988-2019, Gaussian, Inc.  All Rights Reserved.
  
 This is part of the Gaussian(R) 16 program.  It is based on
 the Gaussian(R) 09 system (copyright 2009, Gaussian, Inc.),
 the Gaussian(R) 03 system (copyright 2003, Gaussian, Inc.),
 the Gaussian(R) 98 system (copyright 1998, Gaussian, Inc.),
 the Gaussian(R) 94 system (copyright 1995, Gaussian, Inc.),
 the Gaussian 92(TM) system (copyright 1992, Gaussian, Inc.),
 the Gaussian 90(TM) system (copyright 1990, Gaussian, Inc.),
 the Gaussian 88(TM) system (copyright 1988, Gaussian, Inc.),
 the Gaussian 86(TM) system (copyright 1986, Carnegie Mellon
 University), and the Gaussian 82(TM) system (copyright 1983,
 Carnegie Mellon University). Gaussian is a federally registered
 trademark of Gaussian, Inc.
  
 This software contains proprietary and confidential information,
 including trade secrets, belonging to Gaussian, Inc.
  
 This software is provided under written license and may be
 used, copied, transmitted, or stored only in accord with that
 written license.
  
 The following legend is applicable only to US Government
 contracts under FAR:
  
                    RESTRICTED RIGHTS LEGEND
  
 Use, reproduction and disclosure by the US Government is
 subject to restrictions as set forth in subparagraphs (a)
 and (c) of the Commercial Computer Software - Restricted
 Rights clause in FAR 52.227-19.
  
 Gaussian, Inc.
 340 Quinnipiac St., Bldg. 40, Wallingford CT 06492
  
  
 ---------------------------------------------------------------
 Warning -- This program may not be used in any manner that
 competes with the business of Gaussian, Inc. or will provide
 assistance to any competitor of Gaussian, Inc.  The licensee
 of this program is prohibited from giving any competitor of
 Gaussian, Inc. access to this program.  By using this program,
 the user acknowledges that Gaussian, Inc. is engaged in the
 business of creating and licensing software in the field of
 computational chemistry and represents and warrants to the
 licensee that it is not a competitor of Gaussian, Inc. and that
 it will not use this program in any manner prohibited above.
 ---------------------------------------------------------------
  

 Cite this work as:
 Gaussian 16, Revision C.01,
 M. J. Frisch, G. W. Trucks, H. B. Schlegel, G. E. Scuseria, 
 M. A. Robb, J. R. Cheeseman, G. Scalmani, V. Barone, 
 G. A. Petersson, H. Nakatsuji, X. Li, M. Caricato, A. V. Marenich, 
 J. Bloino, B. G. Janesko, R. Gomperts, B. Mennucci, H. P. Hratchian, 
 J. V. Ortiz, A. F. Izmaylov, J. L. Sonnenberg, D. Williams-Young, 
 F. Ding, F. Lipparini, F. Egidi, J. Goings, B. Peng, A. Petrone, 
 T. Henderson, D. Ranasinghe, V. G. Zakrzewski, J. Gao, N. Rega, 
 G. Zheng, W. Liang, M. Hada, M. Ehara, K. Toyota, R. Fukuda, 
 J. Hasegawa, M. Ishida, T. Nakajima, Y. Honda, O. Kitao, H. Nakai, 
 T. Vreven, K. Throssell, J. A. Montgomery, Jr., J. E. Peralta, 
 F. Ogliaro, M. J. Bearpark, J. J. Heyd, E. N. Brothers, K. N. Kudin, 
 V. N. Staroverov, T. A. Keith, R. Kobayashi, J. Normand, 
 K. Raghavachari, A. P. Rendell, J. C. Burant, S. S. Iyengar, 
 J. Tomasi, M. Cossi, J. M. Millam, M. Klene, C. Adamo, R. Cammi, 
 J. W. Ochterski, R. L. Martin, K. Morokuma, O. Farkas, 
 J. B. Foresman, and D. J. Fox, Gaussian, Inc., Wallingford CT, 2019.
 
 ******************************************
 Gaussian 16:  ES64L-G16RevC.01  3-Jul-2019
                10-Nov-2022 
 ******************************************
 %nproc=16
 Will use up to   16 processors via shared memory.
 %mem=60GB
 %oldchk=DA_ts.chk
 %chk=fine_irc_DA.chk
 Copying data from "DA_ts.chk" to current chk file "fine_irc_DA.chk"
 IOpt=  2 FromEx=T IUOpen= 4 IOptOp= 5 NList=   0 IFRang= 0 IUIn= 4 IUOut= 2.
 ----------------------------------------------------------------------
 #p irc=(ReadCartesianFC,stepsize=5,lqa,maxpoints=50) b3lyp/6-31g(d) em
 =gd3bj geom=allcheck guess=read
 ----------------------------------------------------------------------
 1/10=5,18=10,26=3,29=7,38=1,39=5,42=50,44=3,45=2,172=1/1,23;
 2/12=2,29=1,40=1/2;
 3/5=1,6=6,7=1,11=2,14=-4,25=1,30=1,71=2,74=-5,116=-2,124=41,140=1/1,2,3;
 4/5=1/1;
 5/5=2,38=6/2;
 8/6=4,10=90,11=11/1;
 11/6=1,8=1,9=11,15=111,16=1/1,2,10;
 10/6=1,13=1/2;
 6/7=2,8=2,9=2,10=2,28=1/1;
 7/10=1,25=1/1,2,3,16;
 1/18=10,26=3,39=5,42=50,44=3,45=2/23(2);
 2/29=1/2;
 99/5=20/99;
 2/29=1/2;
 3/5=1,6=6,7=1,11=2,14=-2,25=1,30=1,71=2,74=-5,124=41,140=1/1,2,3;
 4/5=5,16=3,69=1/1;
 5/5=2,38=5/2;
 8/6=4,10=90,11=11/1;
 11/6=1,8=1,9=11,15=111,16=1/1,2,10;
 10/6=1,13=1/2;
 7/10=1,25=1/1,2,3,16;
 1/18=10,26=3,39=5,42=50,44=3,45=2/23(-8);
 2/29=1/2;
 6/7=2,8=2,9=2,10=2,19=2,28=1/1;
 99/5=20,9=1/99;
 Leave Link    1 at Thu Nov 10 12:58:58 2022, MaxMem=  8053063680 cpu:               1.9 elap:               0.1
 (Enter /project/chenjingdan/g16/l101.exe)
 Structure from the checkpoint file:  "fine_irc_DA.chk"
 -------------------
 Title Card Required
 -------------------
 Charge =  0 Multiplicity = 1
 Redundant internal coordinates found in file.  (old form).
 C,0,-1.5504399691,0.7415546404,-0.2216788466
 H,0,-1.4242054094,1.2794400393,-1.1539759043
 H,0,-2.0235941508,1.3033880227,0.5780542787
 C,0,-1.5949783495,-0.6413306481,-0.2182695983
 H,0,-2.1038808428,-1.1674670294,0.5838275904
 H,0,-1.5038927715,-1.1906999991,-1.1479871962
 C,0,0.5015761384,1.4200468867,0.4881720587
 H,0,0.4790658784,2.5010841834,0.3789711981
 H,0,0.1723985969,1.0562965056,1.4543827575
 C,0,1.3398399461,0.6595691301,-0.3029995597
 H,0,1.8908561659,1.1502201177,-1.1034570546
 C,0,1.2938418084,-0.7470848708,-0.2994732703
 H,0,1.8114308099,-1.2766805436,-1.0974146566
 C,0,0.4075797507,-1.4471552707,0.4953024097
 H,0,0.3146845395,-2.5249866277,0.3916310775
 H,0,0.1033898589,-1.0578645366,1.4597747162
 Recover connectivity data from disk.
 ITRead=  0  0  0  0  0  0  0  0  0  0  0  0  0  0  0  0
 MicOpt= -1 -1 -1 -1 -1 -1 -1 -1 -1 -1 -1 -1 -1 -1 -1 -1
 NAtoms=     16 NQM=       16 NQMF=       0 NMMI=      0 NMMIF=      0
                NMic=       0 NMicF=      0.
                    Isotopes and Nuclear Properties:
 (Nuclear quadrupole moments (NQMom) in fm**2, nuclear magnetic moments (NMagM)
  in nuclear magnetons)

  Atom         1           2           3           4           5           6           7           8           9          10
 IAtWgt=          12           1           1          12           1           1          12           1           1          12
 AtmWgt=  12.0000000   1.0078250   1.0078250  12.0000000   1.0078250   1.0078250  12.0000000   1.0078250   1.0078250  12.0000000
 NucSpn=           0           1           1           0           1           1           0           1           1           0
 AtZEff=   3.6000000   1.0000000   1.0000000   3.6000000   1.0000000   1.0000000   3.6000000   1.0000000   1.0000000   3.6000000
 NQMom=    0.0000000   0.0000000   0.0000000   0.0000000   0.0000000   0.0000000   0.0000000   0.0000000   0.0000000   0.0000000
 NMagM=    0.0000000   2.7928460   2.7928460   0.0000000   2.7928460   2.7928460   0.0000000   2.7928460   2.7928460   0.0000000
 AtZNuc=   6.0000000   1.0000000   1.0000000   6.0000000   1.0000000   1.0000000   6.0000000   1.0000000   1.0000000   6.0000000

  Atom        11          12          13          14          15          16
 IAtWgt=           1          12           1          12           1           1
 AtmWgt=   1.0078250  12.0000000   1.0078250  12.0000000   1.0078250   1.0078250
 NucSpn=           1           0           1           0           1           1
 AtZEff=   1.0000000   3.6000000   1.0000000   3.6000000   1.0000000   1.0000000
 NQMom=    0.0000000   0.0000000   0.0000000   0.0000000   0.0000000   0.0000000
 NMagM=    2.7928460   0.0000000   2.7928460   0.0000000   2.7928460   2.7928460
 AtZNuc=   1.0000000   6.0000000   1.0000000   6.0000000   1.0000000   1.0000000
 Leave Link  101 at Thu Nov 10 12:58:58 2022, MaxMem=  8053063680 cpu:               5.0 elap:               0.3
 (Enter /project/chenjingdan/g16/l123.exe)
 IRC-IRC-IRC-IRC-IRC-IRC-IRC-IRC-IRC-IRC-IRC-IRC-IRC-IRC-IRC-IRC-IRC-IRC
 ------------------------------------------------------------------------
 INPUT DATA FOR L123
 ------------------------------------------------------------------------
 GENERAL PARAMETERS:
 Follow reaction path in both directions.
 Maximum points per path      =  50
 Step size                    =   0.050 bohr
 Integration scheme           = LQA                                 
 Initial Hessian              = ReadFC from chk
 Hessian evaluation           = All updating
 Hessian updating method      = Bofill                              
 ------------------------------------------------------------------------
          ******** Start new reaction path calculation ********
 RCFC Option Requested - Data Read From Chk File:
 "fine_irc_DA.chk"
   Energy From Chk =   -234.5693176

 Current Structure is TS -> form Hessian eigenvectors.
                            Recovering Hessian eigenvectors from chk file.
 Supplied step size of   0.0500 bohr.
    Integration on MW PES will use step size of   0.1437 sqrt(amu)*bohr.
 Point Number:   0          Path Number:   1
 Calculating another point on the path.
 Point Number  1 in FORWARD path direction.
 Using LQA Reaction Path Following.
 IRC-IRC-IRC-IRC-IRC-IRC-IRC-IRC-IRC-IRC-IRC-IRC-IRC-IRC-IRC-IRC-IRC-IRC
 Leave Link  123 at Thu Nov 10 12:58:59 2022, MaxMem=  8053063680 cpu:               0.2 elap:               0.1
 (Enter /project/chenjingdan/g16/l202.exe)
                          Input orientation:                          
 ---------------------------------------------------------------------
 Center     Atomic      Atomic             Coordinates (Angstroms)
 Number     Number       Type             X           Y           Z
 ---------------------------------------------------------------------
      1          6           0       -1.590652    0.740389   -0.220515
      2          1           0       -1.450911    1.281505   -1.148955
      3          1           0       -2.051265    1.305764    0.584011
      4          6           0       -1.635023   -0.637104   -0.217122
      5          1           0       -2.131626   -1.167567    0.589801
      6          1           0       -1.530672   -1.190556   -1.142961
      7          6           0        0.481110    1.424084    0.495366
      8          1           0        0.455435    2.504777    0.385011
      9          1           0        0.137677    1.056740    1.455052
     10          6           0        1.309983    0.662577   -0.297985
     11          1           0        1.858454    1.151253   -1.101417
     12          6           0        1.263867   -0.747673   -0.294450
     13          1           0        1.779040   -1.275145   -1.095379
     14          6           0        0.386916   -1.449371    0.502515
     15          1           0        0.290864   -2.526656    0.397679
     16          1           0        0.068732   -1.055594    1.460445
 ---------------------------------------------------------------------
                    Distance matrix (angstroms):
                    1          2          3          4          5
     1  C    0.000000
     2  H    1.083667   0.000000
     3  H    1.085853   1.834171   0.000000
     4  C    1.378211   2.140858   2.142383   0.000000
     5  H    2.142326   3.079708   2.474642   1.085877   0.000000
     6  H    2.140807   2.473356   3.079783   1.083687   1.834159
     7  C    2.296110   2.541028   2.536686   3.038775   3.681299
     8  H    2.768790   2.735617   2.785817   3.821517   4.496769
     9  H    2.427905   3.058592   2.369006   2.967784   3.293317
    10  C    2.902712   2.954617   3.534062   3.220057   3.997782
    11  H    3.583451   3.312268   4.260333   4.023006   4.915066
    12  C    3.219949   3.495392   3.997298   2.902028   3.533778
    13  H    4.022758   4.119698   4.914537   3.582493   4.259661
    14  C    3.037860   3.682750   3.679964   2.294753   2.535762
    15  H    3.820451   4.464073   4.495301   2.767206   2.784330
    16  H    2.967277   3.818418   3.292192   2.427374   2.368995
                    6          7          8          9         10
     6  H    0.000000
     7  C    3.683439   0.000000
     8  H    4.464841   1.086616   0.000000
     9  H    3.818822   1.083459   1.828324   0.000000
    10  C    3.495341   1.377073   2.142531   2.145414   0.000000
    11  H    4.119704   2.126318   2.451522   3.083105   1.088635
    12  C    2.953906   2.439886   3.419599   2.754082   1.411008
    13  H    3.311134   3.391302   4.269813   3.825763   2.147235
    14  C    2.540023   2.875008   3.956487   2.692590   2.439914
    15  H    2.734360   3.956524   5.034140   3.739282   3.419614
    16  H    3.058436   2.692625   3.739296   2.113465   2.754068
                   11         12         13         14         15
    11  H    0.000000
    12  C    2.147242   0.000000
    13  H    2.427705   1.088631   0.000000
    14  C    3.391351   1.377163   2.126412   0.000000
    15  H    4.269852   2.142559   2.451564   1.086627   0.000000
    16  H    3.825756   2.145418   3.083114   1.083481   1.828343
                   16
    16  H    0.000000
 Symmetry turned off by external request.
 Stoichiometry    C6H10
 Framework group  C1[X(C6H10)]
 Deg. of freedom    42
 Full point group                 C1      NOp   1
 Rotational constants (GHZ):           4.3323732           3.4451522           2.2538074
 Leave Link  202 at Thu Nov 10 12:58:59 2022, MaxMem=  8053063680 cpu:               0.1 elap:               0.0
 (Enter /project/chenjingdan/g16/l301.exe)
 Standard basis: 6-31G(d) (6D, 7F)
 Ernie: Thresh=  0.10000D-02 Tol=  0.10000D-05 Strict=F.
   110 basis functions,   208 primitive gaussians,   110 cartesian basis functions
    23 alpha electrons       23 beta electrons
       nuclear repulsion energy       223.9944420303 Hartrees.
 IExCor=  402 DFT=T Ex+Corr=B3LYP ExCW=0 ScaHFX=  0.200000
 ScaDFX=  0.800000  0.720000  1.000000  0.810000 ScalE2=  1.000000  1.000000
 IRadAn=      5 IRanWt=     -1 IRanGd=            0 ICorTp=0 IEmpDi=141
 NAtoms=   16 NActive=   16 NUniq=   16 SFac= 1.00D+00 NAtFMM=   60 NAOKFM=F Big=F
 Integral buffers will be    131072 words long.
 Raffenetti 2 integral format.
 Two-electron integral symmetry is turned off.
 R6Disp:  Grimme-D3(BJ) Dispersion energy=       -0.0254459210 Hartrees.
 Nuclear repulsion after empirical dispersion term =      223.9689961093 Hartrees.
 Leave Link  301 at Thu Nov 10 12:58:59 2022, MaxMem=  8053063680 cpu:               0.9 elap:               0.1
 (Enter /project/chenjingdan/g16/l302.exe)
 NPDir=0 NMtPBC=     1 NCelOv=     1 NCel=       1 NClECP=     1 NCelD=      1
         NCelK=      1 NCelE2=     1 NClLst=     1 CellRange=     0.0.
 One-electron integrals computed using PRISM.
 NBasis=   110 RedAO= T EigKep=  2.27D-03  NBF=   110
 NBsUse=   110 1.00D-06 EigRej= -1.00D+00 NBFU=   110
 Precomputing XC quadrature grid using
 IXCGrd= 4 IRadAn=           5 IRanWt=          -1 IRanGd=           0 AccXCQ= 0.00D+00.
 Generated NRdTot=       0 NPtTot=           0 NUsed=           0 NTot=          32
 NSgBfM=   110   110   110   110   110 MxSgAt=    16 MxSgA2=    16.
 Leave Link  302 at Thu Nov 10 12:58:59 2022, MaxMem=  8053063680 cpu:               2.3 elap:               0.2
 (Enter /project/chenjingdan/g16/l303.exe)
 DipDrv:  MaxL=1.
 Leave Link  303 at Thu Nov 10 12:58:59 2022, MaxMem=  8053063680 cpu:               0.3 elap:               0.0
 (Enter /project/chenjingdan/g16/l401.exe)
 Initial guess from the checkpoint file:  "fine_irc_DA.chk"
 B after Tr=    -0.052463    0.001723    0.007811
         Rot=   -0.015594    0.002808    0.001160    0.999874 Ang= 181.79 deg.
 Guess basis will be translated and rotated to current coordinates.
 JPrj=2 DoOrth=T DoCkMO=T.
 Leave Link  401 at Thu Nov 10 12:58:59 2022, MaxMem=  8053063680 cpu:               1.5 elap:               0.1
 (Enter /project/chenjingdan/g16/l502.exe)
 Two-electron integral symmetry not used.
 Closed shell SCF:
 Using DIIS extrapolation, IDIIS=  1040.
 NGot=  8053063680 LenX=  8053036108 LenY=  8053023567
 Requested convergence on RMS density matrix=1.00D-08 within 128 cycles.
 Requested convergence on MAX density matrix=1.00D-06.
 Requested convergence on             energy=1.00D-06.
 No special actions if energy rises.
 Fock matrices will be formed incrementally for  20 cycles.

 Cycle   1  Pass 1  IDiag  1:
 FoFJK:  IHMeth= 1 ICntrl=       0 DoSepK=F KAlg= 0 I1Cent=           0 FoldK=F
 IRaf= 990000000 NMat=       1 IRICut=       1 DoRegI=T DoRafI=F ISym2E= 0 IDoP0=0 IntGTp=1.
 FoFCou: FMM=F IPFlag=           0 FMFlag=      100000 FMFlg1=           0
         NFxFlg=           0 DoJE=F BraDBF=F KetDBF=F FulRan=T
         wScrn=  0.000000 ICntrl=         0 IOpCl=  0 I1Cent=           0 NGrid=           0
         NMat0=    1 NMatS0=      1 NMatT0=    0 NMatD0=    1 NMtDS0=    0 NMtDT0=    0
 Symmetry not used in FoFCou.
 E= -234.569091294318    
 DIIS: error= 9.97D-04 at cycle   1 NSaved=   1.
 NSaved= 1 IEnMin= 1 EnMin= -234.569091294318     IErMin= 1 ErrMin= 9.97D-04
 ErrMax= 9.97D-04  0.00D+00 EMaxC= 1.00D-01 BMatC= 9.50D-05 BMatP= 9.50D-05
 IDIUse=3 WtCom= 9.90D-01 WtEn= 9.97D-03
 Coeff-Com:  0.100D+01
 Coeff-En:   0.100D+01
 Coeff:      0.100D+01
 Gap=     0.210 Goal=   None    Shift=    0.000
 RMSDP=2.15D-04 MaxDP=2.90D-03              OVMax= 1.37D-02

 Cycle   2  Pass 1  IDiag  1:
 RMSU=  2.15D-04    CP:  1.00D+00
 E= -234.569401935312     Delta-E=       -0.000310640994 Rises=F Damp=F
 DIIS: error= 3.62D-04 at cycle   2 NSaved=   2.
 NSaved= 2 IEnMin= 2 EnMin= -234.569401935312     IErMin= 2 ErrMin= 3.62D-04
 ErrMax= 3.62D-04  0.00D+00 EMaxC= 1.00D-01 BMatC= 9.98D-06 BMatP= 9.50D-05
 IDIUse=3 WtCom= 9.96D-01 WtEn= 3.62D-03
 Coeff-Com:  0.640D-01 0.936D+00
 Coeff-En:   0.000D+00 0.100D+01
 Coeff:      0.638D-01 0.936D+00
 Gap=     0.210 Goal=   None    Shift=    0.000
 RMSDP=7.46D-05 MaxDP=7.93D-04 DE=-3.11D-04 OVMax= 4.11D-03

 Cycle   3  Pass 1  IDiag  1:
 RMSU=  6.59D-05    CP:  1.00D+00  1.16D+00
 E= -234.569409221318     Delta-E=       -0.000007286006 Rises=F Damp=F
 DIIS: error= 3.63D-04 at cycle   3 NSaved=   3.
 NSaved= 3 IEnMin= 3 EnMin= -234.569409221318     IErMin= 2 ErrMin= 3.62D-04
 ErrMax= 3.63D-04  0.00D+00 EMaxC= 1.00D-01 BMatC= 1.06D-05 BMatP= 9.98D-06
 IDIUse=3 WtCom= 9.96D-01 WtEn= 3.63D-03
 Coeff-Com: -0.500D-01 0.529D+00 0.521D+00
 Coeff-En:   0.000D+00 0.313D+00 0.687D+00
 Coeff:     -0.498D-01 0.528D+00 0.521D+00
 Gap=     0.210 Goal=   None    Shift=    0.000
 RMSDP=4.01D-05 MaxDP=5.17D-04 DE=-7.29D-06 OVMax= 2.64D-03

 Cycle   4  Pass 1  IDiag  1:
 RMSU=  2.38D-05    CP:  1.00D+00  1.23D+00  5.60D-01
 E= -234.569420644687     Delta-E=       -0.000011423369 Rises=F Damp=F
 DIIS: error= 1.30D-04 at cycle   4 NSaved=   4.
 NSaved= 4 IEnMin= 4 EnMin= -234.569420644687     IErMin= 4 ErrMin= 1.30D-04
 ErrMax= 1.30D-04  0.00D+00 EMaxC= 1.00D-01 BMatC= 1.25D-06 BMatP= 9.98D-06
 IDIUse=3 WtCom= 9.99D-01 WtEn= 1.30D-03
 Coeff-Com: -0.317D-01 0.189D+00 0.307D+00 0.536D+00
 Coeff-En:   0.000D+00 0.000D+00 0.394D-01 0.961D+00
 Coeff:     -0.317D-01 0.189D+00 0.306D+00 0.536D+00
 Gap=     0.210 Goal=   None    Shift=    0.000
 RMSDP=1.37D-05 MaxDP=2.06D-04 DE=-1.14D-05 OVMax= 8.49D-04

 Cycle   5  Pass 1  IDiag  1:
 RMSU=  1.01D-05    CP:  1.00D+00  1.24D+00  6.47D-01  7.05D-01
 E= -234.569422151801     Delta-E=       -0.000001507114 Rises=F Damp=F
 DIIS: error= 3.60D-05 at cycle   5 NSaved=   5.
 NSaved= 5 IEnMin= 5 EnMin= -234.569422151801     IErMin= 5 ErrMin= 3.60D-05
 ErrMax= 3.60D-05  0.00D+00 EMaxC= 1.00D-01 BMatC= 9.47D-08 BMatP= 1.25D-06
 IDIUse=1 WtCom= 1.00D+00 WtEn= 0.00D+00
 Coeff-Com: -0.495D-02-0.120D-01 0.607D-01 0.254D+00 0.702D+00
 Coeff:     -0.495D-02-0.120D-01 0.607D-01 0.254D+00 0.702D+00
 Gap=     0.210 Goal=   None    Shift=    0.000
 RMSDP=4.56D-06 MaxDP=5.03D-05 DE=-1.51D-06 OVMax= 2.72D-04

 Cycle   6  Pass 1  IDiag  1:
 RMSU=  1.87D-06    CP:  1.00D+00  1.25D+00  6.71D-01  8.17D-01  8.19D-01
 E= -234.569422288231     Delta-E=       -0.000000136430 Rises=F Damp=F
 DIIS: error= 5.16D-06 at cycle   6 NSaved=   6.
 NSaved= 6 IEnMin= 6 EnMin= -234.569422288231     IErMin= 6 ErrMin= 5.16D-06
 ErrMax= 5.16D-06  0.00D+00 EMaxC= 1.00D-01 BMatC= 2.47D-09 BMatP= 9.47D-08
 IDIUse=1 WtCom= 1.00D+00 WtEn= 0.00D+00
 Coeff-Com:  0.165D-02-0.224D-01-0.118D-01 0.104D-01 0.163D+00 0.859D+00
 Coeff:      0.165D-02-0.224D-01-0.118D-01 0.104D-01 0.163D+00 0.859D+00
 Gap=     0.210 Goal=   None    Shift=    0.000
 RMSDP=1.04D-06 MaxDP=1.02D-05 DE=-1.36D-07 OVMax= 5.89D-05

 Cycle   7  Pass 1  IDiag  1:
 RMSU=  4.31D-07    CP:  1.00D+00  1.25D+00  6.77D-01  8.32D-01  8.68D-01
                    CP:  9.11D-01
 E= -234.569422292747     Delta-E=       -0.000000004516 Rises=F Damp=F
 DIIS: error= 8.59D-07 at cycle   7 NSaved=   7.
 NSaved= 7 IEnMin= 7 EnMin= -234.569422292747     IErMin= 7 ErrMin= 8.59D-07
 ErrMax= 8.59D-07  0.00D+00 EMaxC= 1.00D-01 BMatC= 1.08D-10 BMatP= 2.47D-09
 IDIUse=1 WtCom= 1.00D+00 WtEn= 0.00D+00
 Coeff-Com:  0.742D-03-0.859D-02-0.564D-02-0.106D-02 0.527D-01 0.329D+00
 Coeff-Com:  0.633D+00
 Coeff:      0.742D-03-0.859D-02-0.564D-02-0.106D-02 0.527D-01 0.329D+00
 Coeff:      0.633D+00
 Gap=     0.210 Goal=   None    Shift=    0.000
 RMSDP=1.52D-07 MaxDP=2.05D-06 DE=-4.52D-09 OVMax= 5.56D-06

 Cycle   8  Pass 1  IDiag  1:
 RMSU=  1.30D-07    CP:  1.00D+00  1.25D+00  6.77D-01  8.32D-01  8.72D-01
                    CP:  9.33D-01  8.87D-01
 E= -234.569422292842     Delta-E=       -0.000000000095 Rises=F Damp=F
 DIIS: error= 5.71D-07 at cycle   8 NSaved=   8.
 NSaved= 8 IEnMin= 8 EnMin= -234.569422292842     IErMin= 8 ErrMin= 5.71D-07
 ErrMax= 5.71D-07  0.00D+00 EMaxC= 1.00D-01 BMatC= 3.13D-11 BMatP= 1.08D-10
 IDIUse=1 WtCom= 1.00D+00 WtEn= 0.00D+00
 Coeff-Com:  0.159D-03-0.140D-02-0.132D-02-0.229D-02 0.505D-02 0.501D-01
 Coeff-Com:  0.360D+00 0.589D+00
 Coeff:      0.159D-03-0.140D-02-0.132D-02-0.229D-02 0.505D-02 0.501D-01
 Coeff:      0.360D+00 0.589D+00
 Gap=     0.210 Goal=   None    Shift=    0.000
 RMSDP=5.43D-08 MaxDP=9.62D-07 DE=-9.49D-11 OVMax= 2.85D-06

 Cycle   9  Pass 1  IDiag  1:
 RMSU=  3.07D-08    CP:  1.00D+00  1.25D+00  6.77D-01  8.32D-01  8.73D-01
                    CP:  9.39D-01  9.20D-01  7.19D-01
 E= -234.569422292877     Delta-E=       -0.000000000035 Rises=F Damp=F
 DIIS: error= 6.30D-08 at cycle   9 NSaved=   9.
 NSaved= 9 IEnMin= 9 EnMin= -234.569422292877     IErMin= 9 ErrMin= 6.30D-08
 ErrMax= 6.30D-08  0.00D+00 EMaxC= 1.00D-01 BMatC= 7.35D-13 BMatP= 3.13D-11
 IDIUse=1 WtCom= 1.00D+00 WtEn= 0.00D+00
 Coeff-Com:  0.627D-05 0.949D-04-0.534D-04-0.582D-03-0.156D-02-0.492D-02
 Coeff-Com:  0.823D-01 0.210D+00 0.715D+00
 Coeff:      0.627D-05 0.949D-04-0.534D-04-0.582D-03-0.156D-02-0.492D-02
 Coeff:      0.823D-01 0.210D+00 0.715D+00
 Gap=     0.210 Goal=   None    Shift=    0.000
 RMSDP=1.31D-08 MaxDP=1.44D-07 DE=-3.48D-11 OVMax= 3.56D-07

 Cycle  10  Pass 1  IDiag  1:
 RMSU=  7.12D-09    CP:  1.00D+00  1.25D+00  6.77D-01  8.32D-01  8.73D-01
                    CP:  9.39D-01  9.34D-01  7.22D-01  7.28D-01
 E= -234.569422292878     Delta-E=       -0.000000000002 Rises=F Damp=F
 DIIS: error= 2.81D-08 at cycle  10 NSaved=  10.
 NSaved=10 IEnMin=10 EnMin= -234.569422292878     IErMin=10 ErrMin= 2.81D-08
 ErrMax= 2.81D-08  0.00D+00 EMaxC= 1.00D-01 BMatC= 6.19D-14 BMatP= 7.35D-13
 IDIUse=1 WtCom= 1.00D+00 WtEn= 0.00D+00
 Coeff-Com: -0.294D-05 0.895D-04 0.293D-04-0.157D-03-0.855D-03-0.412D-02
 Coeff-Com:  0.224D-01 0.727D-01 0.316D+00 0.594D+00
 Coeff:     -0.294D-05 0.895D-04 0.293D-04-0.157D-03-0.855D-03-0.412D-02
 Coeff:      0.224D-01 0.727D-01 0.316D+00 0.594D+00
 Gap=     0.210 Goal=   None    Shift=    0.000
 RMSDP=3.96D-09 MaxDP=6.25D-08 DE=-1.53D-12 OVMax= 2.19D-07

 SCF Done:  E(RB3LYP) =  -234.569422293     A.U. after   10 cycles
            NFock= 10  Conv=0.40D-08     -V/T= 2.0102
 KE= 2.322044365534D+02 PE=-9.901457659334D+02 EE= 2.994029109778D+02
 Leave Link  502 at Thu Nov 10 12:59:02 2022, MaxMem=  8053063680 cpu:              39.0 elap:               2.5
 (Enter /project/chenjingdan/g16/l801.exe)
 DoSCS=F DFT=T ScalE2(SS,OS)=  1.000000  1.000000
 Range of M.O.s used for correlation:     1   110
 NBasis=   110 NAE=    23 NBE=    23 NFC=     0 NFV=     0
 NROrb=    110 NOA=    23 NOB=    23 NVA=    87 NVB=    87
 Leave Link  801 at Thu Nov 10 12:59:02 2022, MaxMem=  8053063680 cpu:               0.3 elap:               0.0
 (Enter /project/chenjingdan/g16/l1101.exe)
 Leave Link 1101 at Thu Nov 10 12:59:02 2022, MaxMem=  8053063680 cpu:               0.3 elap:               0.0
 (Enter /project/chenjingdan/g16/l1102.exe)
 Symmetrizing basis deriv contribution to polar:
 IMax=3 JMax=2 DiffMx= 0.00D+00
 Leave Link 1102 at Thu Nov 10 12:59:02 2022, MaxMem=  8053063680 cpu:               0.3 elap:               0.0
 (Enter /project/chenjingdan/g16/l1110.exe)
 Leave Link 1110 at Thu Nov 10 12:59:02 2022, MaxMem=  8053063680 cpu:               0.3 elap:               0.0
 (Enter /project/chenjingdan/g16/l1002.exe)
 Minotr:  Closed shell wavefunction.
 Leave Link 1002 at Thu Nov 10 12:59:02 2022, MaxMem=  8053063680 cpu:               0.3 elap:               0.0
 (Enter /project/chenjingdan/g16/l601.exe)
 Copying SCF densities to generalized density rwf, IOpCl= 0 IROHF=0.

 **********************************************************************

            Population analysis using the SCF Density.

 **********************************************************************

 Alpha  occ. eigenvalues --  -10.18458 -10.18456 -10.17929 -10.17866 -10.17587
 Alpha  occ. eigenvalues --  -10.17538  -0.80099  -0.73995  -0.71191  -0.61723
 Alpha  occ. eigenvalues --   -0.57536  -0.51562  -0.48600  -0.45894  -0.42301
 Alpha  occ. eigenvalues --   -0.40198  -0.40111  -0.36132  -0.34992  -0.33789
 Alpha  occ. eigenvalues --   -0.33492  -0.22053  -0.21976
 Alpha virt. eigenvalues --   -0.01017   0.02182   0.09593   0.10933   0.12415
 Alpha virt. eigenvalues --    0.14442   0.14600   0.15237   0.17249   0.20295
 Alpha virt. eigenvalues --    0.20590   0.23958   0.25030   0.29579   0.32735
 Alpha virt. eigenvalues --    0.36439   0.43522   0.46482   0.50524   0.52400
 Alpha virt. eigenvalues --    0.55540   0.57625   0.58336   0.61551   0.62830
 Alpha virt. eigenvalues --    0.64345   0.65789   0.66876   0.67538   0.72935
 Alpha virt. eigenvalues --    0.74401   0.82322   0.85752   0.86471   0.86696
 Alpha virt. eigenvalues --    0.86849   0.88577   0.89411   0.93925   0.95577
 Alpha virt. eigenvalues --    0.96163   0.99100   1.01262   1.06022   1.07821
 Alpha virt. eigenvalues --    1.10701   1.16461   1.23619   1.28382   1.39065
 Alpha virt. eigenvalues --    1.39753   1.49644   1.53154   1.60974   1.61110
 Alpha virt. eigenvalues --    1.73529   1.75027   1.83876   1.91519   1.93184
 Alpha virt. eigenvalues --    1.95021   1.97204   1.98347   2.03207   2.05323
 Alpha virt. eigenvalues --    2.09564   2.12728   2.20375   2.20393   2.25762
 Alpha virt. eigenvalues --    2.27772   2.28198   2.43725   2.53532   2.57657
 Alpha virt. eigenvalues --    2.60892   2.60938   2.68194   2.70747   2.87331
 Alpha virt. eigenvalues --    3.05567   4.12188   4.23087   4.27709   4.28860
 Alpha virt. eigenvalues --    4.43101   4.53372
          Condensed to atoms (all electrons):
               1          2          3          4          5          6
     1  C    5.017824   0.382329   0.377381   0.584326  -0.038375  -0.034264
     2  H    0.382329   0.553360  -0.042608  -0.034266   0.004878  -0.007991
     3  H    0.377381  -0.042608   0.570627  -0.038383  -0.008165   0.004879
     4  C    0.584326  -0.034266  -0.038383   5.017860   0.377373   0.382325
     5  H   -0.038375   0.004878  -0.008165   0.377373   0.570627  -0.042607
     6  H   -0.034264  -0.007991   0.004879   0.382325  -0.042607   0.553394
     7  C    0.078045  -0.006186  -0.007846  -0.013717   0.000800   0.000528
     8  H   -0.004020  -0.000772   0.000348   0.000895  -0.000023  -0.000022
     9  H   -0.012229   0.000849  -0.002737  -0.006181   0.000417  -0.000002
    10  C   -0.013590  -0.002399   0.000262  -0.021498   0.000503   0.000349
    11  H    0.000479   0.000436  -0.000043  -0.000090   0.000005  -0.000009
    12  C   -0.021540   0.000350   0.000503  -0.013669   0.000265  -0.002408
    13  H   -0.000090  -0.000009   0.000005   0.000478  -0.000043   0.000438
    14  C   -0.013763   0.000529   0.000799   0.078107  -0.007875  -0.006225
    15  H    0.000898  -0.000022  -0.000023  -0.004037   0.000347  -0.000777
    16  H   -0.006198  -0.000002   0.000419  -0.012280  -0.002747   0.000855
               7          8          9         10         11         12
     1  C    0.078045  -0.004020  -0.012229  -0.013590   0.000479  -0.021540
     2  H   -0.006186  -0.000772   0.000849  -0.002399   0.000436   0.000350
     3  H   -0.007846   0.000348  -0.002737   0.000262  -0.000043   0.000503
     4  C   -0.013717   0.000895  -0.006181  -0.021498  -0.000090  -0.013669
     5  H    0.000800  -0.000023   0.000417   0.000503   0.000005   0.000265
     6  H    0.000528  -0.000022  -0.000002   0.000349  -0.000009  -0.002408
     7  C    5.097712   0.362596   0.370424   0.574474  -0.059664  -0.042632
     8  H    0.362596   0.571987  -0.043246  -0.026609  -0.007351   0.005428
     9  H    0.370424  -0.043246   0.564047  -0.029459   0.005535  -0.013784
    10  C    0.574474  -0.026609  -0.029459   4.785296   0.369392   0.538052
    11  H   -0.059664  -0.007351   0.005535   0.369392   0.617646  -0.045407
    12  C   -0.042632   0.005428  -0.013784   0.538052  -0.045407   4.785518
    13  H    0.006687  -0.000160  -0.000009  -0.045400  -0.007884   0.369393
    14  C   -0.030566   0.000381   0.005972  -0.042623   0.006686   0.574407
    15  H    0.000381  -0.000007  -0.000093   0.005429  -0.000160  -0.026617
    16  H    0.005971  -0.000093   0.005117  -0.013782  -0.000009  -0.029456
              13         14         15         16
     1  C   -0.000090  -0.013763   0.000898  -0.006198
     2  H   -0.000009   0.000529  -0.000022  -0.000002
     3  H    0.000005   0.000799  -0.000023   0.000419
     4  C    0.000478   0.078107  -0.004037  -0.012280
     5  H   -0.000043  -0.007875   0.000347  -0.002747
     6  H    0.000438  -0.006225  -0.000777   0.000855
     7  C    0.006687  -0.030566   0.000381   0.005971
     8  H   -0.000160   0.000381  -0.000007  -0.000093
     9  H   -0.000009   0.005972  -0.000093   0.005117
    10  C   -0.045400  -0.042623   0.005429  -0.013782
    11  H   -0.007884   0.006686  -0.000160  -0.000009
    12  C    0.369393   0.574407  -0.026617  -0.029456
    13  H    0.617644  -0.059663  -0.007350   0.005534
    14  C   -0.059663   5.097838   0.362584   0.370438
    15  H   -0.007350   0.362584   0.571997  -0.043237
    16  H    0.005534   0.370438  -0.043237   0.564051
 Mulliken charges:
               1
     1  C   -0.297213
     2  H    0.151523
     3  H    0.144582
     4  C   -0.297242
     5  H    0.144619
     6  H    0.151537
     7  C   -0.337007
     8  H    0.140668
     9  H    0.155380
    10  C   -0.078396
    11  H    0.120438
    12  C   -0.078401
    13  H    0.120430
    14  C   -0.337026
    15  H    0.140686
    16  H    0.155420
 Sum of Mulliken charges =  -0.00000
 Mulliken charges with hydrogens summed into heavy atoms:
               1
     1  C   -0.001107
     4  C   -0.001086
     7  C   -0.040959
    10  C    0.042043
    12  C    0.042029
    14  C   -0.040919
 Electronic spatial extent (au):  <R**2>=            615.7048
 Charge=             -0.0000 electrons
 Dipole moment (field-independent basis, Debye):
    X=             -0.3552    Y=              0.0110    Z=              0.0099  Tot=              0.3556
 Quadrupole moment (field-independent basis, Debye-Ang):
   XX=            -40.8718   YY=            -35.5593   ZZ=            -36.6345
   XY=              0.1676   XZ=             -2.6699   YZ=              0.0843
 Traceless Quadrupole moment (field-independent basis, Debye-Ang):
   XX=             -3.1832   YY=              2.1292   ZZ=              1.0540
   XY=              0.1676   XZ=             -2.6699   YZ=              0.0843
 Octapole moment (field-independent basis, Debye-Ang**2):
  XXX=              4.4499  YYY=              0.0142  ZZZ=             -0.3395  XYY=             -0.2390
  XXY=             -0.1643  XXZ=             -1.7697  XZZ=             -0.0974  YZZ=              0.0088
  YYZ=             -1.2908  XYZ=              0.0163
 Hexadecapole moment (field-independent basis, Debye-Ang**3):
 XXXX=           -431.5634 YYYY=           -312.6996 ZZZZ=           -103.4300 XXXY=              2.0036
 XXXZ=            -16.3196 YYYX=              1.7205 YYYZ=              0.6302 ZZZX=             -2.5960
 ZZZY=              0.3574 XXYY=           -122.5159 XXZZ=            -82.9833 YYZZ=            -72.0054
 XXYZ=              0.3571 YYXZ=             -4.0781 ZZXY=              0.3553
 N-N= 2.239689961093D+02 E-N=-9.901457657905D+02  KE= 2.322044365534D+02
  Exact polarizability:       0.000       0.000       0.000       0.000       0.000       0.000
 Approx polarizability:     126.472       0.337     137.889     -13.937       0.308      74.743
 No NMR shielding tensors so no spin-rotation constants.
 Leave Link  601 at Thu Nov 10 12:59:02 2022, MaxMem=  8053063680 cpu:               1.8 elap:               0.1
 (Enter /project/chenjingdan/g16/l701.exe)
 ... and contract with generalized density number  0.
 Compute integral first derivatives.
 R6Disp: Adding Grimme-D3(BJ) dispersion energy 1st derivatives to the gradient.
 Leave Link  701 at Thu Nov 10 12:59:03 2022, MaxMem=  8053063680 cpu:               1.8 elap:               0.1
 (Enter /project/chenjingdan/g16/l702.exe)
 L702 exits ... SP integral derivatives will be done elsewhere.
 Leave Link  702 at Thu Nov 10 12:59:03 2022, MaxMem=  8053063680 cpu:               0.3 elap:               0.0
 (Enter /project/chenjingdan/g16/l703.exe)
 Integral derivatives from FoFJK, PRISM(SPDF).
 Compute integral first derivatives, UseDBF=F ICtDFT=           0.
 Calling FoFJK, ICntrl=      2127 FMM=F ISym2X=0 I1Cent= 0 IOpClX= 0 NMat=1 NMatS=1 NMatT=0.
 FoFJK:  IHMeth= 1 ICntrl=    2127 DoSepK=F KAlg= 0 I1Cent=           0 FoldK=F
 IRaf=         0 NMat=       1 IRICut=       1 DoRegI=T DoRafI=F ISym2E= 0 IDoP0=0 IntGTp=1.
 FoFCou: FMM=F IPFlag=           0 FMFlag=      100000 FMFlg1=         800
         NFxFlg=           0 DoJE=F BraDBF=F KetDBF=F FulRan=T
         wScrn=  0.000000 ICntrl=      2127 IOpCl=  0 I1Cent=           0 NGrid=           0
         NMat0=    1 NMatS0=      1 NMatT0=    0 NMatD0=    1 NMtDS0=    0 NMtDT0=    0
 Symmetry not used in FoFCou.
 Leave Link  703 at Thu Nov 10 12:59:03 2022, MaxMem=  8053063680 cpu:               9.7 elap:               0.6
 (Enter /project/chenjingdan/g16/l716.exe)
 Dipole        =-1.39765106D-01 4.34210485D-03 3.90955246D-03
 Polarizability= 0.00000000D+00 0.00000000D+00 0.00000000D+00
                 0.00000000D+00 0.00000000D+00 0.00000000D+00
 -------------------------------------------------------------------
 Center     Atomic                   Forces (Hartrees/Bohr)
 Number     Number              X              Y              Z
 -------------------------------------------------------------------
      1        6          -0.002215536   -0.000314496   -0.000708164
      2        1           0.000056855   -0.000018739    0.000057108
      3        1           0.000049330   -0.000011716   -0.000011271
      4        6          -0.002220962    0.000469746   -0.000726605
      5        1           0.000071273    0.000009874   -0.000013996
      6        1           0.000037395    0.000026185    0.000060418
      7        6           0.002010412    0.000592650    0.000709641
      8        1           0.000116442    0.000045631    0.000025089
      9        1          -0.000055191    0.000020714   -0.000133193
     10        6           0.000096976    0.000357425    0.000090153
     11        1          -0.000041005   -0.000005791   -0.000036104
     12        6           0.000040537   -0.000393777    0.000118451
     13        1          -0.000042793    0.000004839   -0.000035275
     14        6           0.002030949   -0.000712136    0.000712315
     15        1           0.000112475   -0.000047745    0.000029595
     16        1          -0.000047155   -0.000022663   -0.000138161
 -------------------------------------------------------------------
 Cartesian Forces:  Max     0.002220962 RMS     0.000671504
 Leave Link  716 at Thu Nov 10 12:59:03 2022, MaxMem=  8053063680 cpu:               0.3 elap:               0.0
 (Enter /project/chenjingdan/g16/l123.exe)
 IRC-IRC-IRC-IRC-IRC-IRC-IRC-IRC-IRC-IRC-IRC-IRC-IRC-IRC-IRC-IRC-IRC-IRC
 Pt  1 Step number   1 out of a maximum of  20
 Point Number:   1          Path Number:   1
                    CURRENT STRUCTURE
                Cartesian Coordinates (Ang):                
 ---------------------------------------------------------------------
 Center     Atomic                     Coordinates (Angstroms)
 Number     Number                        X           Y           Z
 ---------------------------------------------------------------------
      1          6                   -1.590652    0.740389   -0.220515
      2          1                   -1.450911    1.281505   -1.148955
      3          1                   -2.051265    1.305764    0.584011
      4          6                   -1.635023   -0.637104   -0.217122
      5          1                   -2.131626   -1.167567    0.589801
      6          1                   -1.530672   -1.190556   -1.142961
      7          6                    0.481110    1.424084    0.495366
      8          1                    0.455435    2.504777    0.385011
      9          1                    0.137677    1.056740    1.455052
     10          6                    1.309983    0.662577   -0.297985
     11          1                    1.858454    1.151253   -1.101417
     12          6                    1.263867   -0.747673   -0.294450
     13          1                    1.779040   -1.275145   -1.095379
     14          6                    0.386916   -1.449371    0.502515
     15          1                    0.290864   -2.526656    0.397679
     16          1                    0.068732   -1.055594    1.460445
 ---------------------------------------------------------------------
   CHANGE IN THE REACTION COORDINATE =    0.14366
   NET REACTION COORDINATE UP TO THIS POINT =    0.14366
  # OF POINTS ALONG THE PATH =   1
  # OF STEPS =   1

 Calculating another point on the path.
 Point Number  2 in FORWARD path direction.
 Using LQA Reaction Path Following.
   LQA: T_Est iteration completed in    3 iterations.
 IRC-IRC-IRC-IRC-IRC-IRC-IRC-IRC-IRC-IRC-IRC-IRC-IRC-IRC-IRC-IRC-IRC-IRC
 Leave Link  123 at Thu Nov 10 12:59:03 2022, MaxMem=  8053063680 cpu:               0.4 elap:               0.0
 (Enter /project/chenjingdan/g16/l202.exe)
                          Input orientation:                          
 ---------------------------------------------------------------------
 Center     Atomic      Atomic             Coordinates (Angstroms)
 Number     Number       Type             X           Y           Z
 ---------------------------------------------------------------------
      1          6           0       -1.600826    0.738231   -0.223735
      2          1           0       -1.447730    1.282276   -1.148323
      3          1           0       -2.049287    1.306860    0.585358
      4          6           0       -1.645115   -0.634225   -0.220393
      5          1           0       -2.129533   -1.168754    0.591228
      6          1           0       -1.527816   -1.191411   -1.142388
      7          6           0        0.490623    1.426900    0.498201
      8          1           0        0.462029    2.507258    0.386620
      9          1           0        0.133260    1.056238    1.451333
     10          6           0        1.310276    0.664305   -0.297419
     11          1           0        1.856355    1.151074   -1.103650
     12          6           0        1.264023   -0.749459   -0.293877
     13          1           0        1.776885   -1.274901   -1.097638
     14          6           0        0.396355   -1.452830    0.505419
     15          1           0        0.297325   -2.529578    0.399374
     16          1           0        0.064547   -1.054804    1.456768
 ---------------------------------------------------------------------
                    Distance matrix (angstroms):
                    1          2          3          4          5
     1  C    0.000000
     2  H    1.083645   0.000000
     3  H    1.085857   1.835245   0.000000
     4  C    1.373175   2.138455   2.140186   0.000000
     5  H    2.140161   3.081954   2.476921   1.085869   0.000000
     6  H    2.138405   2.474991   3.081946   1.083646   1.835211
     7  C    2.317243   2.547385   2.544238   3.053849   3.689348
     8  H    2.785204   2.739309   2.790548   3.831114   4.502346
     9  H    2.431879   3.051039   2.361405   2.968999   3.287948
    10  C    2.912973   2.951699   3.532539   3.229002   3.997760
    11  H    3.591210   3.306991   4.258057   4.028365   4.913401
    12  C    3.228855   3.494515   3.997440   2.912347   3.532059
    13  H    4.028069   4.115807   4.912998   3.590280   4.257186
    14  C    3.053055   3.690030   3.688284   2.316143   2.543260
    15  H    3.830120   4.468871   4.501047   2.783801   2.788958
    16  H    2.968591   3.812535   3.287111   2.431605   2.361383
                    6          7          8          9         10
     6  H    0.000000
     7  C    3.690689   0.000000
     8  H    4.469620   1.086481   0.000000
     9  H    3.812937   1.083310   1.829525   0.000000
    10  C    3.494628   1.373460   2.141006   2.144087   0.000000
    11  H    4.115987   2.123023   2.450364   3.083178   1.088648
    12  C    2.951213   2.441736   3.422349   2.754074   1.414525
    13  H    3.306058   3.391298   4.270433   3.825306   2.149092
    14  C    2.546771   2.881282   3.962414   2.694326   2.441734
    15  H    2.738404   3.962430   5.039544   3.740536   3.422350
    16  H    3.051211   2.694299   3.740520   2.112166   2.753970
                   11         12         13         14         15
    11  H    0.000000
    12  C    2.149096   0.000000
    13  H    2.427284   1.088645   0.000000
    14  C    3.391315   1.373482   2.123044   0.000000
    15  H    4.270462   2.141010   2.450379   1.086480   0.000000
    16  H    3.825207   2.144000   3.083105   1.083322   1.829543
                   16
    16  H    0.000000
 Symmetry turned off by external request.
 Stoichiometry    C6H10
 Framework group  C1[X(C6H10)]
 Deg. of freedom    42
 Full point group                 C1      NOp   1
 Rotational constants (GHZ):           4.3212420           3.4207747           2.2418292
 Leave Link  202 at Thu Nov 10 12:59:03 2022, MaxMem=  8053063680 cpu:               0.1 elap:               0.0
 (Enter /project/chenjingdan/g16/l301.exe)
 Standard basis: 6-31G(d) (6D, 7F)
 Ernie: Thresh=  0.10000D-02 Tol=  0.10000D-05 Strict=F.
   110 basis functions,   208 primitive gaussians,   110 cartesian basis functions
    23 alpha electrons       23 beta electrons
       nuclear repulsion energy       223.7286597579 Hartrees.
 IExCor=  402 DFT=T Ex+Corr=B3LYP ExCW=0 ScaHFX=  0.200000
 ScaDFX=  0.800000  0.720000  1.000000  0.810000 ScalE2=  1.000000  1.000000
 IRadAn=      5 IRanWt=     -1 IRanGd=            0 ICorTp=0 IEmpDi=141
 NAtoms=   16 NActive=   16 NUniq=   16 SFac= 1.00D+00 NAtFMM=   60 NAOKFM=F Big=F
 Integral buffers will be    131072 words long.
 Raffenetti 2 integral format.
 Two-electron integral symmetry is turned off.
 R6Disp:  Grimme-D3(BJ) Dispersion energy=       -0.0254203714 Hartrees.
 Nuclear repulsion after empirical dispersion term =      223.7032393865 Hartrees.
 Leave Link  301 at Thu Nov 10 12:59:04 2022, MaxMem=  8053063680 cpu:               0.8 elap:               0.1
 (Enter /project/chenjingdan/g16/l302.exe)
 NPDir=0 NMtPBC=     1 NCelOv=     1 NCel=       1 NClECP=     1 NCelD=      1
         NCelK=      1 NCelE2=     1 NClLst=     1 CellRange=     0.0.
 One-electron integrals computed using PRISM.
 NBasis=   110 RedAO= T EigKep=  2.28D-03  NBF=   110
 NBsUse=   110 1.00D-06 EigRej= -1.00D+00 NBFU=   110
 Precomputing XC quadrature grid using
 IXCGrd= 4 IRadAn=           5 IRanWt=          -1 IRanGd=           0 AccXCQ= 0.00D+00.
 Generated NRdTot=       0 NPtTot=           0 NUsed=           0 NTot=          32
 NSgBfM=   110   110   110   110   110 MxSgAt=    16 MxSgA2=    16.
 Leave Link  302 at Thu Nov 10 12:59:04 2022, MaxMem=  8053063680 cpu:               2.1 elap:               0.2
 (Enter /project/chenjingdan/g16/l303.exe)
 DipDrv:  MaxL=1.
 Leave Link  303 at Thu Nov 10 12:59:04 2022, MaxMem=  8053063680 cpu:               0.3 elap:               0.0
 (Enter /project/chenjingdan/g16/l401.exe)
 Initial guess from the checkpoint file:  "fine_irc_DA.chk"
 B after Tr=     0.000210   -0.000006   -0.000096
         Rot=    1.000000    0.000002   -0.000023    0.000003 Ang=   0.00 deg.
 Guess basis will be translated and rotated to current coordinates.
 JPrj=2 DoOrth=T DoCkMO=T.
 Generating alternative initial guess.
 ExpMin= 1.61D-01 ExpMax= 3.05D+03 ExpMxC= 4.57D+02 IAcc=3 IRadAn=         5 AccDes= 0.00D+00
 Harris functional with IExCor=  402 and IRadAn=       5 diagonalized for initial guess.
 HarFok:  IExCor=  402 AccDes= 0.00D+00 IRadAn=         5 IDoV= 1 UseB2=F ITyADJ=14
 ICtDFT=  3500011 ScaDFX=  1.000000  1.000000  1.000000  1.000000
 FoFCou: FMM=F IPFlag=           0 FMFlag=      100000 FMFlg1=           0
         NFxFlg=           0 DoJE=T BraDBF=F KetDBF=T FulRan=T
         wScrn=  0.000000 ICntrl=       500 IOpCl=  0 I1Cent=   200000004 NGrid=           0
         NMat0=    1 NMatS0=      1 NMatT0=    0 NMatD0=    1 NMtDS0=    0 NMtDT0=    0
 Symmetry not used in FoFCou.
 Harris En= -234.639771295187    
 Leave Link  401 at Thu Nov 10 12:59:04 2022, MaxMem=  8053063680 cpu:               4.9 elap:               0.3
 (Enter /project/chenjingdan/g16/l502.exe)
 Two-electron integral symmetry not used.
 Closed shell SCF:
 Using DIIS extrapolation, IDIIS=  1040.
 NGot=  8053063680 LenX=  8053036108 LenY=  8053023567
 Requested convergence on RMS density matrix=1.00D-08 within 128 cycles.
 Requested convergence on MAX density matrix=1.00D-06.
 Requested convergence on             energy=1.00D-06.
 No special actions if energy rises.
 Fock matrices will be formed incrementally for  20 cycles.
 Integral accuracy reduced to 1.0D-05 until final iterations.

 Cycle   1  Pass 0  IDiag  1:
 FoFJK:  IHMeth= 1 ICntrl=       0 DoSepK=F KAlg= 0 I1Cent=           0 FoldK=F
 IRaf= 990000000 NMat=       1 IRICut=       1 DoRegI=T DoRafI=F ISym2E= 0 IDoP0=0 IntGTp=1.
 FoFCou: FMM=F IPFlag=           0 FMFlag=      100000 FMFlg1=           0
         NFxFlg=           0 DoJE=F BraDBF=F KetDBF=F FulRan=T
         wScrn=  0.000000 ICntrl=         0 IOpCl=  0 I1Cent=           0 NGrid=           0
         NMat0=    1 NMatS0=      1 NMatT0=    0 NMatD0=    1 NMtDS0=    0 NMtDT0=    0
 Symmetry not used in FoFCou.
 E= -234.569389029971    
 DIIS: error= 1.11D-03 at cycle   1 NSaved=   1.
 NSaved= 1 IEnMin= 1 EnMin= -234.569389029971     IErMin= 1 ErrMin= 1.11D-03
 ErrMax= 1.11D-03  0.00D+00 EMaxC= 1.00D-01 BMatC= 9.02D-05 BMatP= 9.02D-05
 IDIUse=3 WtCom= 9.89D-01 WtEn= 1.11D-02
 Coeff-Com:  0.100D+01
 Coeff-En:   0.100D+01
 Coeff:      0.100D+01
 Gap=     1.912 Goal=   None    Shift=    0.000
 GapD=    1.912 DampG=2.000 DampE=1.000 DampFc=2.0000 IDamp=-1.
 RMSDP=2.07D-04 MaxDP=2.85D-03              OVMax= 1.32D-02

 Cycle   2  Pass 0  IDiag  1:
 RMSU=  2.07D-04    CP:  1.00D+00
 E= -234.569679271995     Delta-E=       -0.000290242024 Rises=F Damp=F
 DIIS: error= 3.86D-04 at cycle   2 NSaved=   2.
 NSaved= 2 IEnMin= 2 EnMin= -234.569679271995     IErMin= 2 ErrMin= 3.86D-04
 ErrMax= 3.86D-04  0.00D+00 EMaxC= 1.00D-01 BMatC= 9.47D-06 BMatP= 9.02D-05
 IDIUse=3 WtCom= 9.96D-01 WtEn= 3.86D-03
 Coeff-Com:  0.667D-01 0.933D+00
 Coeff-En:   0.000D+00 0.100D+01
 Coeff:      0.664D-01 0.934D+00
 Gap=     0.209 Goal=   None    Shift=    0.000
 RMSDP=7.22D-05 MaxDP=7.65D-04 DE=-2.90D-04 OVMax= 3.90D-03

 Cycle   3  Pass 0  IDiag  1:
 RMSU=  6.42D-05    CP:  1.00D+00  1.16D+00
 E= -234.569685717936     Delta-E=       -0.000006445941 Rises=F Damp=F
 DIIS: error= 3.48D-04 at cycle   3 NSaved=   3.
 NSaved= 3 IEnMin= 3 EnMin= -234.569685717936     IErMin= 3 ErrMin= 3.48D-04
 ErrMax= 3.48D-04  0.00D+00 EMaxC= 1.00D-01 BMatC= 1.01D-05 BMatP= 9.47D-06
 IDIUse=3 WtCom= 9.97D-01 WtEn= 3.48D-03
 Coeff-Com: -0.485D-01 0.529D+00 0.520D+00
 Coeff-En:   0.000D+00 0.328D+00 0.672D+00
 Coeff:     -0.483D-01 0.528D+00 0.520D+00
 Gap=     0.209 Goal=   None    Shift=    0.000
 RMSDP=3.86D-05 MaxDP=4.77D-04 DE=-6.45D-06 OVMax= 2.52D-03

 Cycle   4  Pass 0  IDiag  1:
 RMSU=  2.27D-05    CP:  1.00D+00  1.22D+00  5.63D-01
 E= -234.569696507044     Delta-E=       -0.000010789108 Rises=F Damp=F
 DIIS: error= 1.34D-04 at cycle   4 NSaved=   4.
 NSaved= 4 IEnMin= 4 EnMin= -234.569696507044     IErMin= 4 ErrMin= 1.34D-04
 ErrMax= 1.34D-04  0.00D+00 EMaxC= 1.00D-01 BMatC= 1.16D-06 BMatP= 9.47D-06
 IDIUse=3 WtCom= 9.99D-01 WtEn= 1.34D-03
 Coeff-Com: -0.314D-01 0.192D+00 0.306D+00 0.533D+00
 Coeff-En:   0.000D+00 0.000D+00 0.360D-01 0.964D+00
 Coeff:     -0.313D-01 0.192D+00 0.306D+00 0.534D+00
 Gap=     0.209 Goal=   None    Shift=    0.000
 RMSDP=1.30D-05 MaxDP=2.02D-04 DE=-1.08D-05 OVMax= 7.92D-04

 Cycle   5  Pass 0  IDiag  1:
 RMSU=  9.61D-06    CP:  1.00D+00  1.23D+00  6.45D-01  7.04D-01
 E= -234.569697884749     Delta-E=       -0.000001377706 Rises=F Damp=F
 DIIS: error= 3.27D-05 at cycle   5 NSaved=   5.
 NSaved= 5 IEnMin= 5 EnMin= -234.569697884749     IErMin= 5 ErrMin= 3.27D-05
 ErrMax= 3.27D-05  0.00D+00 EMaxC= 1.00D-01 BMatC= 8.39D-08 BMatP= 1.16D-06
 IDIUse=1 WtCom= 1.00D+00 WtEn= 0.00D+00
 Coeff-Com: -0.494D-02-0.112D-01 0.593D-01 0.249D+00 0.708D+00
 Coeff:     -0.494D-02-0.112D-01 0.593D-01 0.249D+00 0.708D+00
 Gap=     0.209 Goal=   None    Shift=    0.000
 RMSDP=4.28D-06 MaxDP=4.69D-05 DE=-1.38D-06 OVMax= 2.49D-04

 Initial convergence to 1.0D-05 achieved.  Increase integral accuracy.
 Cycle   6  Pass 1  IDiag  1:
 E= -234.569701711138     Delta-E=       -0.000003826389 Rises=F Damp=F
 DIIS: error= 5.38D-06 at cycle   1 NSaved=   1.
 NSaved= 1 IEnMin= 1 EnMin= -234.569701711138     IErMin= 1 ErrMin= 5.38D-06
 ErrMax= 5.38D-06  0.00D+00 EMaxC= 1.00D-01 BMatC= 3.03D-09 BMatP= 3.03D-09
 IDIUse=1 WtCom= 1.00D+00 WtEn= 0.00D+00
 Coeff-Com:  0.100D+01
 Coeff:      0.100D+01
 Gap=     0.209 Goal=   None    Shift=    0.000
 RMSDP=4.28D-06 MaxDP=4.69D-05 DE=-3.83D-06 OVMax= 5.51D-05

 Cycle   7  Pass 1  IDiag  1:
 RMSU=  1.17D-06    CP:  1.00D+00
 E= -234.569701713102     Delta-E=       -0.000000001964 Rises=F Damp=F
 DIIS: error= 5.83D-06 at cycle   2 NSaved=   2.
 NSaved= 2 IEnMin= 2 EnMin= -234.569701713102     IErMin= 1 ErrMin= 5.38D-06
 ErrMax= 5.83D-06  0.00D+00 EMaxC= 1.00D-01 BMatC= 2.10D-09 BMatP= 3.03D-09
 IDIUse=1 WtCom= 1.00D+00 WtEn= 0.00D+00
 Coeff-Com:  0.443D+00 0.557D+00
 Coeff:      0.443D+00 0.557D+00
 Gap=     0.209 Goal=   None    Shift=    0.000
 RMSDP=6.75D-07 MaxDP=1.16D-05 DE=-1.96D-09 OVMax= 3.64D-05

 Cycle   8  Pass 1  IDiag  1:
 RMSU=  6.00D-07    CP:  1.00D+00  7.37D-01
 E= -234.569701714772     Delta-E=       -0.000000001670 Rises=F Damp=F
 DIIS: error= 2.98D-06 at cycle   3 NSaved=   3.
 NSaved= 3 IEnMin= 3 EnMin= -234.569701714772     IErMin= 3 ErrMin= 2.98D-06
 ErrMax= 2.98D-06  0.00D+00 EMaxC= 1.00D-01 BMatC= 6.67D-10 BMatP= 2.10D-09
 IDIUse=1 WtCom= 1.00D+00 WtEn= 0.00D+00
 Coeff-Com:  0.914D-01 0.360D+00 0.548D+00
 Coeff:      0.914D-01 0.360D+00 0.548D+00
 Gap=     0.209 Goal=   None    Shift=    0.000
 RMSDP=2.87D-07 MaxDP=4.22D-06 DE=-1.67D-09 OVMax= 1.69D-05

 Cycle   9  Pass 1  IDiag  1:
 RMSU=  1.72D-07    CP:  1.00D+00  8.51D-01  6.90D-01
 E= -234.569701715549     Delta-E=       -0.000000000776 Rises=F Damp=F
 DIIS: error= 4.95D-07 at cycle   4 NSaved=   4.
 NSaved= 4 IEnMin= 4 EnMin= -234.569701715549     IErMin= 4 ErrMin= 4.95D-07
 ErrMax= 4.95D-07  0.00D+00 EMaxC= 1.00D-01 BMatC= 2.94D-11 BMatP= 6.67D-10
 IDIUse=1 WtCom= 1.00D+00 WtEn= 0.00D+00
 Coeff-Com: -0.500D-02 0.110D+00 0.248D+00 0.646D+00
 Coeff:     -0.500D-02 0.110D+00 0.248D+00 0.646D+00
 Gap=     0.209 Goal=   None    Shift=    0.000
 RMSDP=7.53D-08 MaxDP=8.06D-07 DE=-7.76D-10 OVMax= 4.30D-06

 Cycle  10  Pass 1  IDiag  1:
 RMSU=  5.52D-08    CP:  1.00D+00  8.67D-01  7.31D-01  7.66D-01
 E= -234.569701715585     Delta-E=       -0.000000000037 Rises=F Damp=F
 DIIS: error= 1.22D-07 at cycle   5 NSaved=   5.
 NSaved= 5 IEnMin= 5 EnMin= -234.569701715585     IErMin= 5 ErrMin= 1.22D-07
 ErrMax= 1.22D-07  0.00D+00 EMaxC= 1.00D-01 BMatC= 2.62D-12 BMatP= 2.94D-11
 IDIUse=1 WtCom= 1.00D+00 WtEn= 0.00D+00
 Coeff-Com: -0.141D-01 0.100D-01 0.472D-01 0.277D+00 0.680D+00
 Coeff:     -0.141D-01 0.100D-01 0.472D-01 0.277D+00 0.680D+00
 Gap=     0.209 Goal=   None    Shift=    0.000
 RMSDP=2.26D-08 MaxDP=2.17D-07 DE=-3.69D-11 OVMax= 8.80D-07

 Cycle  11  Pass 1  IDiag  1:
 RMSU=  1.48D-08    CP:  1.00D+00  8.75D-01  7.46D-01  8.29D-01  9.21D-01
 E= -234.569701715589     Delta-E=       -0.000000000004 Rises=F Damp=F
 DIIS: error= 3.47D-08 at cycle   6 NSaved=   6.
 NSaved= 6 IEnMin= 6 EnMin= -234.569701715589     IErMin= 6 ErrMin= 3.47D-08
 ErrMax= 3.47D-08  0.00D+00 EMaxC= 1.00D-01 BMatC= 7.55D-14 BMatP= 2.62D-12
 IDIUse=1 WtCom= 1.00D+00 WtEn= 0.00D+00
 Coeff-Com: -0.203D-02-0.511D-02-0.117D-01 0.245D-02 0.818D-01 0.935D+00
 Coeff:     -0.203D-02-0.511D-02-0.117D-01 0.245D-02 0.818D-01 0.935D+00
 Gap=     0.209 Goal=   None    Shift=    0.000
 RMSDP=7.83D-09 MaxDP=8.78D-08 DE=-3.98D-12 OVMax= 5.14D-07

 SCF Done:  E(RB3LYP) =  -234.569701716     A.U. after   11 cycles
            NFock= 11  Conv=0.78D-08     -V/T= 2.0101
 KE= 2.322231714631D+02 PE=-9.896272819112D+02 EE= 2.991311693460D+02
 Leave Link  502 at Thu Nov 10 12:59:06 2022, MaxMem=  8053063680 cpu:              30.4 elap:               1.9
 (Enter /project/chenjingdan/g16/l801.exe)
 DoSCS=F DFT=T ScalE2(SS,OS)=  1.000000  1.000000
 Range of M.O.s used for correlation:     1   110
 NBasis=   110 NAE=    23 NBE=    23 NFC=     0 NFV=     0
 NROrb=    110 NOA=    23 NOB=    23 NVA=    87 NVB=    87
 Leave Link  801 at Thu Nov 10 12:59:06 2022, MaxMem=  8053063680 cpu:               0.3 elap:               0.0
 (Enter /project/chenjingdan/g16/l1101.exe)
 Leave Link 1101 at Thu Nov 10 12:59:06 2022, MaxMem=  8053063680 cpu:               0.3 elap:               0.0
 (Enter /project/chenjingdan/g16/l1102.exe)
 Symmetrizing basis deriv contribution to polar:
 IMax=3 JMax=2 DiffMx= 0.00D+00
 Leave Link 1102 at Thu Nov 10 12:59:06 2022, MaxMem=  8053063680 cpu:               0.3 elap:               0.0
 (Enter /project/chenjingdan/g16/l1110.exe)
 Leave Link 1110 at Thu Nov 10 12:59:06 2022, MaxMem=  8053063680 cpu:               0.3 elap:               0.0
 (Enter /project/chenjingdan/g16/l1002.exe)
 Minotr:  Closed shell wavefunction.
 Leave Link 1002 at Thu Nov 10 12:59:06 2022, MaxMem=  8053063680 cpu:               0.3 elap:               0.0
 (Enter /project/chenjingdan/g16/l701.exe)
 ... and contract with generalized density number  0.
 Compute integral first derivatives.
 R6Disp: Adding Grimme-D3(BJ) dispersion energy 1st derivatives to the gradient.
 Leave Link  701 at Thu Nov 10 12:59:06 2022, MaxMem=  8053063680 cpu:               1.8 elap:               0.1
 (Enter /project/chenjingdan/g16/l702.exe)
 L702 exits ... SP integral derivatives will be done elsewhere.
 Leave Link  702 at Thu Nov 10 12:59:07 2022, MaxMem=  8053063680 cpu:               0.3 elap:               0.0
 (Enter /project/chenjingdan/g16/l703.exe)
 Integral derivatives from FoFJK, PRISM(SPDF).
 Compute integral first derivatives, UseDBF=F ICtDFT=           0.
 Calling FoFJK, ICntrl=      2127 FMM=F ISym2X=0 I1Cent= 0 IOpClX= 0 NMat=1 NMatS=1 NMatT=0.
 FoFJK:  IHMeth= 1 ICntrl=    2127 DoSepK=F KAlg= 0 I1Cent=           0 FoldK=F
 IRaf=         0 NMat=       1 IRICut=       1 DoRegI=T DoRafI=F ISym2E= 0 IDoP0=0 IntGTp=1.
 FoFCou: FMM=F IPFlag=           0 FMFlag=      100000 FMFlg1=         800
         NFxFlg=           0 DoJE=F BraDBF=F KetDBF=F FulRan=T
         wScrn=  0.000000 ICntrl=      2127 IOpCl=  0 I1Cent=           0 NGrid=           0
         NMat0=    1 NMatS0=      1 NMatT0=    0 NMatD0=    1 NMtDS0=    0 NMtDT0=    0
 Symmetry not used in FoFCou.
 Leave Link  703 at Thu Nov 10 12:59:07 2022, MaxMem=  8053063680 cpu:              10.4 elap:               0.7
 (Enter /project/chenjingdan/g16/l716.exe)
 Dipole        =-1.27601445D-01 3.93885589D-03 3.69049780D-03
 Polarizability= 0.00000000D+00 0.00000000D+00 0.00000000D+00
                 0.00000000D+00 0.00000000D+00 0.00000000D+00
 -------------------------------------------------------------------
 Center     Atomic                   Forces (Hartrees/Bohr)
 Number     Number              X              Y              Z
 -------------------------------------------------------------------
      1        6          -0.004097624   -0.000453324   -0.001310934
      2        1           0.000070133   -0.000042372    0.000101288
      3        1           0.000080653   -0.000027432   -0.000028077
      4        6          -0.004080848    0.000731320   -0.001315762
      5        1           0.000083769    0.000026342   -0.000031271
      6        1           0.000072241    0.000038531    0.000097958
      7        6           0.003691153    0.001168214    0.001331983
      8        1           0.000247019    0.000088047    0.000062853
      9        1          -0.000078737    0.000042813   -0.000232797
     10        6           0.000182047    0.000610677    0.000121140
     11        1          -0.000052751   -0.000010334   -0.000054171
     12        6           0.000145511   -0.000631946    0.000119259
     13        1          -0.000051894    0.000012846   -0.000055024
     14        6           0.003628397   -0.001403811    0.001357151
     15        1           0.000241714   -0.000104658    0.000065874
     16        1          -0.000080784   -0.000044914   -0.000229470
 -------------------------------------------------------------------
 Cartesian Forces:  Max     0.004097624 RMS     0.001229518
 Leave Link  716 at Thu Nov 10 12:59:07 2022, MaxMem=  8053063680 cpu:               0.3 elap:               0.0
 (Enter /project/chenjingdan/g16/l123.exe)
 IRC-IRC-IRC-IRC-IRC-IRC-IRC-IRC-IRC-IRC-IRC-IRC-IRC-IRC-IRC-IRC-IRC-IRC
 Pt  2 Step number   1 out of a maximum of  20
 Point Number:   2          Path Number:   1
                    CURRENT STRUCTURE
                Cartesian Coordinates (Ang):                
 ---------------------------------------------------------------------
 Center     Atomic                     Coordinates (Angstroms)
 Number     Number                        X           Y           Z
 ---------------------------------------------------------------------
      1          6                   -1.600826    0.738231   -0.223735
      2          1                   -1.447730    1.282276   -1.148323
      3          1                   -2.049287    1.306860    0.585358
      4          6                   -1.645115   -0.634225   -0.220393
      5          1                   -2.129533   -1.168754    0.591228
      6          1                   -1.527816   -1.191411   -1.142388
      7          6                    0.490623    1.426900    0.498201
      8          1                    0.462029    2.507258    0.386620
      9          1                    0.133260    1.056238    1.451333
     10          6                    1.310276    0.664305   -0.297419
     11          1                    1.856355    1.151074   -1.103650
     12          6                    1.264023   -0.749459   -0.293877
     13          1                    1.776885   -1.274901   -1.097638
     14          6                    0.396355   -1.452830    0.505419
     15          1                    0.297325   -2.529578    0.399374
     16          1                    0.064547   -1.054804    1.456768
 ---------------------------------------------------------------------
   CHANGE IN THE REACTION COORDINATE =    0.14360
   NET REACTION COORDINATE UP TO THIS POINT =    0.28726
  # OF POINTS ALONG THE PATH =   2
  # OF STEPS =   1

 Calculating another point on the path.
 Point Number  3 in FORWARD path direction.
 Using LQA Reaction Path Following.
   LQA: T_Est iteration completed in    3 iterations.
 IRC-IRC-IRC-IRC-IRC-IRC-IRC-IRC-IRC-IRC-IRC-IRC-IRC-IRC-IRC-IRC-IRC-IRC
 Leave Link  123 at Thu Nov 10 12:59:07 2022, MaxMem=  8053063680 cpu:               0.6 elap:               0.1
 (Enter /project/chenjingdan/g16/l202.exe)
                          Input orientation:                          
 ---------------------------------------------------------------------
 Center     Atomic      Atomic             Coordinates (Angstroms)
 Number     Number       Type             X           Y           Z
 ---------------------------------------------------------------------
      1          6           0       -1.611093    0.736360   -0.226973
      2          1           0       -1.445182    1.282888   -1.147776
      3          1           0       -2.047937    1.307771    0.586423
      4          6           0       -1.655274   -0.631667   -0.223655
      5          1           0       -2.128258   -1.169702    0.592289
      6          1           0       -1.525325   -1.192146   -1.141854
      7          6           0        0.500129    1.429869    0.501147
      8          1           0        0.469440    2.509938    0.388549
      9          1           0        0.129455    1.056096    1.447710
     10          6           0        1.310634    0.665954   -0.296979
     11          1           0        1.854810    1.150907   -1.105586
     12          6           0        1.264275   -0.751143   -0.293429
     13          1           0        1.775342   -1.274661   -1.099586
     14          6           0        0.405684   -1.456414    0.508418
     15          1           0        0.304568   -2.532741    0.401341
     16          1           0        0.060803   -1.054504    1.453213
 ---------------------------------------------------------------------
                    Distance matrix (angstroms):
                    1          2          3          4          5
     1  C    0.000000
     2  H    1.083558   0.000000
     3  H    1.085797   1.836131   0.000000
     4  C    1.368744   2.136272   2.138183   0.000000
     5  H    2.138158   3.083766   2.478781   1.085799   0.000000
     6  H    2.136234   2.476338   3.083772   1.083565   1.836106
     7  C    2.338454   2.554366   2.552415   3.069369   3.697904
     8  H    2.802332   2.744399   2.796703   3.841729   4.508802
     9  H    2.436453   3.044251   2.355035   2.971071   3.283777
    10  C    2.923413   2.949404   3.531618   3.238179   3.998300
    11  H    3.599485   3.302900   4.256634   4.034361   4.912518
    12  C    3.238027   3.494044   3.998001   2.922825   3.531142
    13  H    4.034055   4.112804   4.912132   3.598587   4.255767
    14  C    3.068623   3.697629   3.696898   2.337454   2.551490
    15  H    3.840775   4.474418   4.507557   2.801015   2.795171
    16  H    2.970766   3.807432   3.283055   2.436308   2.355090
                    6          7          8          9         10
     6  H    0.000000
     7  C    3.698226   0.000000
     8  H    4.475114   1.086356   0.000000
     9  H    3.807721   1.083092   1.830592   0.000000
    10  C    3.494139   1.370214   2.139587   2.142740   0.000000
    11  H    4.112971   2.120041   2.449215   3.083045   1.088648
    12  C    2.948928   2.443784   3.425128   2.754178   1.417859
    13  H    3.301969   3.391607   4.271196   3.824931   2.150841
    14  C    2.553827   2.887837   3.968675   2.696531   2.443776
    15  H    2.743567   3.968688   5.045390   3.742367   3.425123
    16  H    3.044523   2.696580   3.742424   2.111724   2.754128
                   11         12         13         14         15
    11  H    0.000000
    12  C    2.150843   0.000000
    13  H    2.426877   1.088646   0.000000
    14  C    3.391622   1.370235   2.120065   0.000000
    15  H    4.271223   2.139588   2.449229   1.086356   0.000000
    16  H    3.824886   2.142693   3.083002   1.083104   1.830586
                   16
    16  H    0.000000
 Symmetry turned off by external request.
 Stoichiometry    C6H10
 Framework group  C1[X(C6H10)]
 Deg. of freedom    42
 Full point group                 C1      NOp   1
 Rotational constants (GHZ):           4.3093358           3.3958559           2.2294294
 Leave Link  202 at Thu Nov 10 12:59:07 2022, MaxMem=  8053063680 cpu:               0.1 elap:               0.0
 (Enter /project/chenjingdan/g16/l301.exe)
 Standard basis: 6-31G(d) (6D, 7F)
 Ernie: Thresh=  0.10000D-02 Tol=  0.10000D-05 Strict=F.
   110 basis functions,   208 primitive gaussians,   110 cartesian basis functions
    23 alpha electrons       23 beta electrons
       nuclear repulsion energy       223.4428605136 Hartrees.
 IExCor=  402 DFT=T Ex+Corr=B3LYP ExCW=0 ScaHFX=  0.200000
 ScaDFX=  0.800000  0.720000  1.000000  0.810000 ScalE2=  1.000000  1.000000
 IRadAn=      5 IRanWt=     -1 IRanGd=            0 ICorTp=0 IEmpDi=141
 NAtoms=   16 NActive=   16 NUniq=   16 SFac= 1.00D+00 NAtFMM=   60 NAOKFM=F Big=F
 Integral buffers will be    131072 words long.
 Raffenetti 2 integral format.
 Two-electron integral symmetry is turned off.
 R6Disp:  Grimme-D3(BJ) Dispersion energy=       -0.0253862370 Hartrees.
 Nuclear repulsion after empirical dispersion term =      223.4174742766 Hartrees.
 Leave Link  301 at Thu Nov 10 12:59:08 2022, MaxMem=  8053063680 cpu:               0.9 elap:               0.1
 (Enter /project/chenjingdan/g16/l302.exe)
 NPDir=0 NMtPBC=     1 NCelOv=     1 NCel=       1 NClECP=     1 NCelD=      1
         NCelK=      1 NCelE2=     1 NClLst=     1 CellRange=     0.0.
 One-electron integrals computed using PRISM.
 NBasis=   110 RedAO= T EigKep=  2.28D-03  NBF=   110
 NBsUse=   110 1.00D-06 EigRej= -1.00D+00 NBFU=   110
 Precomputing XC quadrature grid using
 IXCGrd= 4 IRadAn=           5 IRanWt=          -1 IRanGd=           0 AccXCQ= 0.00D+00.
 Generated NRdTot=       0 NPtTot=           0 NUsed=           0 NTot=          32
 NSgBfM=   110   110   110   110   110 MxSgAt=    16 MxSgA2=    16.
 Leave Link  302 at Thu Nov 10 12:59:08 2022, MaxMem=  8053063680 cpu:               2.2 elap:               0.2
 (Enter /project/chenjingdan/g16/l303.exe)
 DipDrv:  MaxL=1.
 Leave Link  303 at Thu Nov 10 12:59:08 2022, MaxMem=  8053063680 cpu:               0.3 elap:               0.0
 (Enter /project/chenjingdan/g16/l401.exe)
 Initial guess from the checkpoint file:  "fine_irc_DA.chk"
 B after Tr=     0.000238   -0.000009   -0.000083
         Rot=    1.000000    0.000000   -0.000018    0.000002 Ang=   0.00 deg.
 Guess basis will be translated and rotated to current coordinates.
 JPrj=2 DoOrth=T DoCkMO=T.
 Generating alternative initial guess.
 ExpMin= 1.61D-01 ExpMax= 3.05D+03 ExpMxC= 4.57D+02 IAcc=3 IRadAn=         5 AccDes= 0.00D+00
 Harris functional with IExCor=  402 and IRadAn=       5 diagonalized for initial guess.
 HarFok:  IExCor=  402 AccDes= 0.00D+00 IRadAn=         5 IDoV= 1 UseB2=F ITyADJ=14
 ICtDFT=  3500011 ScaDFX=  1.000000  1.000000  1.000000  1.000000
 FoFCou: FMM=F IPFlag=           0 FMFlag=      100000 FMFlg1=           0
         NFxFlg=           0 DoJE=T BraDBF=F KetDBF=T FulRan=T
         wScrn=  0.000000 ICntrl=       500 IOpCl=  0 I1Cent=   200000004 NGrid=           0
         NMat0=    1 NMatS0=      1 NMatT0=    0 NMatD0=    1 NMtDS0=    0 NMtDT0=    0
 Symmetry not used in FoFCou.
 Harris En= -234.641299856969    
 Leave Link  401 at Thu Nov 10 12:59:08 2022, MaxMem=  8053063680 cpu:               4.9 elap:               0.3
 (Enter /project/chenjingdan/g16/l502.exe)
 Two-electron integral symmetry not used.
 Closed shell SCF:
 Using DIIS extrapolation, IDIIS=  1040.
 NGot=  8053063680 LenX=  8053036108 LenY=  8053023567
 Requested convergence on RMS density matrix=1.00D-08 within 128 cycles.
 Requested convergence on MAX density matrix=1.00D-06.
 Requested convergence on             energy=1.00D-06.
 No special actions if energy rises.
 Fock matrices will be formed incrementally for  20 cycles.
 Integral accuracy reduced to 1.0D-05 until final iterations.

 Cycle   1  Pass 0  IDiag  1:
 FoFJK:  IHMeth= 1 ICntrl=       0 DoSepK=F KAlg= 0 I1Cent=           0 FoldK=F
 IRaf= 990000000 NMat=       1 IRICut=       1 DoRegI=T DoRafI=F ISym2E= 0 IDoP0=0 IntGTp=1.
 FoFCou: FMM=F IPFlag=           0 FMFlag=      100000 FMFlg1=           0
         NFxFlg=           0 DoJE=F BraDBF=F KetDBF=F FulRan=T
         wScrn=  0.000000 ICntrl=         0 IOpCl=  0 I1Cent=           0 NGrid=           0
         NMat0=    1 NMatS0=      1 NMatT0=    0 NMatD0=    1 NMtDS0=    0 NMtDT0=    0
 Symmetry not used in FoFCou.
 E= -234.569845579784    
 DIIS: error= 1.12D-03 at cycle   1 NSaved=   1.
 NSaved= 1 IEnMin= 1 EnMin= -234.569845579784     IErMin= 1 ErrMin= 1.12D-03
 ErrMax= 1.12D-03  0.00D+00 EMaxC= 1.00D-01 BMatC= 8.26D-05 BMatP= 8.26D-05
 IDIUse=3 WtCom= 9.89D-01 WtEn= 1.12D-02
 Coeff-Com:  0.100D+01
 Coeff-En:   0.100D+01
 Coeff:      0.100D+01
 Gap=     1.915 Goal=   None    Shift=    0.000
 GapD=    1.915 DampG=2.000 DampE=1.000 DampFc=2.0000 IDamp=-1.
 RMSDP=1.97D-04 MaxDP=2.74D-03              OVMax= 1.25D-02

 Cycle   2  Pass 0  IDiag  1:
 RMSU=  1.97D-04    CP:  1.00D+00
 E= -234.570107636040     Delta-E=       -0.000262056256 Rises=F Damp=F
 DIIS: error= 3.76D-04 at cycle   2 NSaved=   2.
 NSaved= 2 IEnMin= 2 EnMin= -234.570107636040     IErMin= 2 ErrMin= 3.76D-04
 ErrMax= 3.76D-04  0.00D+00 EMaxC= 1.00D-01 BMatC= 8.46D-06 BMatP= 8.26D-05
 IDIUse=3 WtCom= 9.96D-01 WtEn= 3.76D-03
 Coeff-Com:  0.647D-01 0.935D+00
 Coeff-En:   0.000D+00 0.100D+01
 Coeff:      0.644D-01 0.936D+00
 Gap=     0.207 Goal=   None    Shift=    0.000
 RMSDP=6.83D-05 MaxDP=7.19D-04 DE=-2.62D-04 OVMax= 3.65D-03

 Cycle   3  Pass 0  IDiag  1:
 RMSU=  6.09D-05    CP:  1.00D+00  1.16D+00
 E= -234.570113103223     Delta-E=       -0.000005467183 Rises=F Damp=F
 DIIS: error= 3.25D-04 at cycle   3 NSaved=   3.
 NSaved= 3 IEnMin= 3 EnMin= -234.570113103223     IErMin= 3 ErrMin= 3.25D-04
 ErrMax= 3.25D-04  0.00D+00 EMaxC= 1.00D-01 BMatC= 9.16D-06 BMatP= 8.46D-06
 IDIUse=3 WtCom= 9.97D-01 WtEn= 3.25D-03
 Coeff-Com: -0.479D-01 0.531D+00 0.517D+00
 Coeff-En:   0.000D+00 0.338D+00 0.662D+00
 Coeff:     -0.477D-01 0.530D+00 0.517D+00
 Gap=     0.207 Goal=   None    Shift=    0.000
 RMSDP=3.61D-05 MaxDP=4.32D-04 DE=-5.47D-06 OVMax= 2.33D-03

 Cycle   4  Pass 0  IDiag  1:
 RMSU=  2.12D-05    CP:  1.00D+00  1.22D+00  5.66D-01
 E= -234.570122849624     Delta-E=       -0.000009746400 Rises=F Damp=F
 DIIS: error= 1.27D-04 at cycle   4 NSaved=   4.
 NSaved= 4 IEnMin= 4 EnMin= -234.570122849624     IErMin= 4 ErrMin= 1.27D-04
 ErrMax= 1.27D-04  0.00D+00 EMaxC= 1.00D-01 BMatC= 1.02D-06 BMatP= 8.46D-06
 IDIUse=3 WtCom= 9.99D-01 WtEn= 1.27D-03
 Coeff-Com: -0.310D-01 0.196D+00 0.304D+00 0.530D+00
 Coeff-En:   0.000D+00 0.000D+00 0.287D-01 0.971D+00
 Coeff:     -0.309D-01 0.196D+00 0.304D+00 0.531D+00
 Gap=     0.207 Goal=   None    Shift=    0.000
 RMSDP=1.20D-05 MaxDP=1.92D-04 DE=-9.75D-06 OVMax= 7.20D-04

 Cycle   5  Pass 0  IDiag  1:
 RMSU=  8.93D-06    CP:  1.00D+00  1.23D+00  6.43D-01  7.04D-01
 E= -234.570124030516     Delta-E=       -0.000001180893 Rises=F Damp=F
 DIIS: error= 2.89D-05 at cycle   5 NSaved=   5.
 NSaved= 5 IEnMin= 5 EnMin= -234.570124030516     IErMin= 5 ErrMin= 2.89D-05
 ErrMax= 2.89D-05  0.00D+00 EMaxC= 1.00D-01 BMatC= 7.09D-08 BMatP= 1.02D-06
 IDIUse=1 WtCom= 1.00D+00 WtEn= 0.00D+00
 Coeff-Com: -0.470D-02-0.111D-01 0.568D-01 0.244D+00 0.715D+00
 Coeff:     -0.470D-02-0.111D-01 0.568D-01 0.244D+00 0.715D+00
 Gap=     0.207 Goal=   None    Shift=    0.000
 RMSDP=3.91D-06 MaxDP=4.36D-05 DE=-1.18D-06 OVMax= 2.23D-04

 Initial convergence to 1.0D-05 achieved.  Increase integral accuracy.
 Cycle   6  Pass 1  IDiag  1:
 E= -234.570131158929     Delta-E=       -0.000007128413 Rises=F Damp=F
 DIIS: error= 5.16D-06 at cycle   1 NSaved=   1.
 NSaved= 1 IEnMin= 1 EnMin= -234.570131158929     IErMin= 1 ErrMin= 5.16D-06
 ErrMax= 5.16D-06  0.00D+00 EMaxC= 1.00D-01 BMatC= 2.67D-09 BMatP= 2.67D-09
 IDIUse=1 WtCom= 1.00D+00 WtEn= 0.00D+00
 Coeff-Com:  0.100D+01
 Coeff:      0.100D+01
 Gap=     0.207 Goal=   None    Shift=    0.000
 RMSDP=3.91D-06 MaxDP=4.36D-05 DE=-7.13D-06 OVMax= 4.69D-05

 Cycle   7  Pass 1  IDiag  1:
 RMSU=  1.08D-06    CP:  1.00D+00
 E= -234.570131160696     Delta-E=       -0.000000001766 Rises=F Damp=F
 DIIS: error= 4.75D-06 at cycle   2 NSaved=   2.
 NSaved= 2 IEnMin= 2 EnMin= -234.570131160696     IErMin= 2 ErrMin= 4.75D-06
 ErrMax= 4.75D-06  0.00D+00 EMaxC= 1.00D-01 BMatC= 1.83D-09 BMatP= 2.67D-09
 IDIUse=1 WtCom= 1.00D+00 WtEn= 0.00D+00
 Coeff-Com:  0.442D+00 0.558D+00
 Coeff:      0.442D+00 0.558D+00
 Gap=     0.207 Goal=   None    Shift=    0.000
 RMSDP=6.00D-07 MaxDP=1.08D-05 DE=-1.77D-09 OVMax= 2.85D-05

 Cycle   8  Pass 1  IDiag  1:
 RMSU=  5.42D-07    CP:  1.00D+00  7.60D-01
 E= -234.570131162103     Delta-E=       -0.000000001408 Rises=F Damp=F
 DIIS: error= 2.49D-06 at cycle   3 NSaved=   3.
 NSaved= 3 IEnMin= 3 EnMin= -234.570131162103     IErMin= 3 ErrMin= 2.49D-06
 ErrMax= 2.49D-06  0.00D+00 EMaxC= 1.00D-01 BMatC= 5.66D-10 BMatP= 1.83D-09
 IDIUse=1 WtCom= 1.00D+00 WtEn= 0.00D+00
 Coeff-Com:  0.851D-01 0.357D+00 0.558D+00
 Coeff:      0.851D-01 0.357D+00 0.558D+00
 Gap=     0.207 Goal=   None    Shift=    0.000
 RMSDP=2.59D-07 MaxDP=4.01D-06 DE=-1.41D-09 OVMax= 1.50D-05

 Cycle   9  Pass 1  IDiag  1:
 RMSU=  1.63D-07    CP:  1.00D+00  8.62D-01  6.89D-01
 E= -234.570131162726     Delta-E=       -0.000000000623 Rises=F Damp=F
 DIIS: error= 5.19D-07 at cycle   4 NSaved=   4.
 NSaved= 4 IEnMin= 4 EnMin= -234.570131162726     IErMin= 4 ErrMin= 5.19D-07
 ErrMax= 5.19D-07  0.00D+00 EMaxC= 1.00D-01 BMatC= 2.65D-11 BMatP= 5.66D-10
 IDIUse=1 WtCom= 1.00D+00 WtEn= 0.00D+00
 Coeff-Com: -0.310D-02 0.114D+00 0.258D+00 0.631D+00
 Coeff:     -0.310D-02 0.114D+00 0.258D+00 0.631D+00
 Gap=     0.207 Goal=   None    Shift=    0.000
 RMSDP=7.12D-08 MaxDP=9.88D-07 DE=-6.23D-10 OVMax= 4.54D-06

 Cycle  10  Pass 1  IDiag  1:
 RMSU=  4.95D-08    CP:  1.00D+00  8.78D-01  7.36D-01  7.50D-01
 E= -234.570131162760     Delta-E=       -0.000000000033 Rises=F Damp=F
 DIIS: error= 1.87D-07 at cycle   5 NSaved=   5.
 NSaved= 5 IEnMin= 5 EnMin= -234.570131162760     IErMin= 5 ErrMin= 1.87D-07
 ErrMax= 1.87D-07  0.00D+00 EMaxC= 1.00D-01 BMatC= 2.95D-12 BMatP= 2.65D-11
 IDIUse=1 WtCom= 1.00D+00 WtEn= 0.00D+00
 Coeff-Com: -0.131D-01 0.170D-01 0.617D-01 0.301D+00 0.634D+00
 Coeff:     -0.131D-01 0.170D-01 0.617D-01 0.301D+00 0.634D+00
 Gap=     0.207 Goal=   None    Shift=    0.000
 RMSDP=2.12D-08 MaxDP=3.32D-07 DE=-3.33D-11 OVMax= 1.17D-06

 Cycle  11  Pass 1  IDiag  1:
 RMSU=  1.51D-08    CP:  1.00D+00  8.85D-01  7.45D-01  8.15D-01  8.97D-01
 E= -234.570131162764     Delta-E=       -0.000000000004 Rises=F Damp=F
 DIIS: error= 3.38D-08 at cycle   6 NSaved=   6.
 NSaved= 6 IEnMin= 6 EnMin= -234.570131162764     IErMin= 6 ErrMin= 3.38D-08
 ErrMax= 3.38D-08  0.00D+00 EMaxC= 1.00D-01 BMatC= 1.83D-13 BMatP= 2.95D-12
 IDIUse=1 WtCom= 1.00D+00 WtEn= 0.00D+00
 Coeff-Com: -0.478D-02-0.242D-02 0.352D-03 0.636D-01 0.222D+00 0.721D+00
 Coeff:     -0.478D-02-0.242D-02 0.352D-03 0.636D-01 0.222D+00 0.721D+00
 Gap=     0.207 Goal=   None    Shift=    0.000
 RMSDP=7.70D-09 MaxDP=1.08D-07 DE=-4.32D-12 OVMax= 4.63D-07

 SCF Done:  E(RB3LYP) =  -234.570131163     A.U. after   11 cycles
            NFock= 11  Conv=0.77D-08     -V/T= 2.0100
 KE= 2.322396080725D+02 PE=-9.890668328662D+02 EE= 2.988396193544D+02
 Leave Link  502 at Thu Nov 10 12:59:10 2022, MaxMem=  8053063680 cpu:              31.3 elap:               2.0
 (Enter /project/chenjingdan/g16/l801.exe)
 DoSCS=F DFT=T ScalE2(SS,OS)=  1.000000  1.000000
 Range of M.O.s used for correlation:     1   110
 NBasis=   110 NAE=    23 NBE=    23 NFC=     0 NFV=     0
 NROrb=    110 NOA=    23 NOB=    23 NVA=    87 NVB=    87
 Leave Link  801 at Thu Nov 10 12:59:10 2022, MaxMem=  8053063680 cpu:               0.4 elap:               0.0
 (Enter /project/chenjingdan/g16/l1101.exe)
 Leave Link 1101 at Thu Nov 10 12:59:10 2022, MaxMem=  8053063680 cpu:               0.3 elap:               0.0
 (Enter /project/chenjingdan/g16/l1102.exe)
 Symmetrizing basis deriv contribution to polar:
 IMax=3 JMax=2 DiffMx= 0.00D+00
 Leave Link 1102 at Thu Nov 10 12:59:10 2022, MaxMem=  8053063680 cpu:               0.4 elap:               0.1
 (Enter /project/chenjingdan/g16/l1110.exe)
 Leave Link 1110 at Thu Nov 10 12:59:10 2022, MaxMem=  8053063680 cpu:               0.3 elap:               0.0
 (Enter /project/chenjingdan/g16/l1002.exe)
 Minotr:  Closed shell wavefunction.
 Leave Link 1002 at Thu Nov 10 12:59:10 2022, MaxMem=  8053063680 cpu:               0.3 elap:               0.0
 (Enter /project/chenjingdan/g16/l701.exe)
 ... and contract with generalized density number  0.
 Compute integral first derivatives.
 R6Disp: Adding Grimme-D3(BJ) dispersion energy 1st derivatives to the gradient.
 Leave Link  701 at Thu Nov 10 12:59:11 2022, MaxMem=  8053063680 cpu:               1.8 elap:               0.1
 (Enter /project/chenjingdan/g16/l702.exe)
 L702 exits ... SP integral derivatives will be done elsewhere.
 Leave Link  702 at Thu Nov 10 12:59:11 2022, MaxMem=  8053063680 cpu:               0.3 elap:               0.0
 (Enter /project/chenjingdan/g16/l703.exe)
 Integral derivatives from FoFJK, PRISM(SPDF).
 Compute integral first derivatives, UseDBF=F ICtDFT=           0.
 Calling FoFJK, ICntrl=      2127 FMM=F ISym2X=0 I1Cent= 0 IOpClX= 0 NMat=1 NMatS=1 NMatT=0.
 FoFJK:  IHMeth= 1 ICntrl=    2127 DoSepK=F KAlg= 0 I1Cent=           0 FoldK=F
 IRaf=         0 NMat=       1 IRICut=       1 DoRegI=T DoRafI=F ISym2E= 0 IDoP0=0 IntGTp=1.
 FoFCou: FMM=F IPFlag=           0 FMFlag=      100000 FMFlg1=         800
         NFxFlg=           0 DoJE=F BraDBF=F KetDBF=F FulRan=T
         wScrn=  0.000000 ICntrl=      2127 IOpCl=  0 I1Cent=           0 NGrid=           0
         NMat0=    1 NMatS0=      1 NMatT0=    0 NMatD0=    1 NMtDS0=    0 NMtDT0=    0
 Symmetry not used in FoFCou.
 Leave Link  703 at Thu Nov 10 12:59:11 2022, MaxMem=  8053063680 cpu:               9.2 elap:               0.6
 (Enter /project/chenjingdan/g16/l716.exe)
 Dipole        =-1.15090562D-01 3.54055388D-03 3.41168711D-03
 Polarizability= 0.00000000D+00 0.00000000D+00 0.00000000D+00
                 0.00000000D+00 0.00000000D+00 0.00000000D+00
 -------------------------------------------------------------------
 Center     Atomic                   Forces (Hartrees/Bohr)
 Number     Number              X              Y              Z
 -------------------------------------------------------------------
      1        6          -0.005659128   -0.000692524   -0.001794791
      2        1           0.000083513   -0.000030687    0.000095448
      3        1           0.000066498   -0.000011732   -0.000016299
      4        6          -0.005616028    0.001067121   -0.001807851
      5        1           0.000065904    0.000007902   -0.000015125
[...]
 Number     Number                        X           Y           Z
 ---------------------------------------------------------------------
      1          6                   -1.234349    0.815883   -0.070362
      2          1                   -1.473141    1.178190   -1.076987
      3          1                   -2.000910    1.228855    0.595065
      4          6                   -1.277619   -0.737158   -0.062612
      5          1                   -2.075623   -1.090205    0.603614
      6          1                   -1.544327   -1.087212   -1.067635
      7          6                    0.150132    1.399330    0.337377
      8          1                    0.189074    2.461740    0.072523
      9          1                    0.252849    1.350437    1.437108
     10          6                    1.274338    0.626172   -0.299000
     11          1                    2.098819    1.166342   -0.754753
     12          6                    1.232219   -0.709086   -0.294784
     13          1                    2.030712   -1.304948   -0.740692
     14          6                    0.051907   -1.402266    0.340024
     15          1                    0.032375   -2.467949    0.087565
     16          1                    0.148965   -1.350407    1.431887
 ---------------------------------------------------------------------
   CHANGE IN THE REACTION COORDINATE =    0.13542
   NET REACTION COORDINATE UP TO THIS POINT =    6.95883
  # OF POINTS ALONG THE PATH = 100
  # OF STEPS =   1

 Maximum number of steps reached.
 Calculation of REVERSE path complete.
 Reaction path calculation complete.
 
 Energies reported relative to the TS energy of        -234.569318
 --------------------------------------------------------------------------
    Summary of reaction path following
 --------------------------------------------------------------------------
                        Energy    RxCoord
   1                   -0.09308  -6.95883
   2                   -0.09313  -6.82341
   3                   -0.09288  -6.71265
   4                   -0.09310  -6.58659
   5                   -0.09308  -6.47096
   6                   -0.09319  -6.34812
   7                   -0.09316  -6.22652
   8                   -0.09318  -6.10620
   9                   -0.09310  -5.98024
  10                   -0.09312  -5.85022
  11                   -0.09304  -5.72143
  12                   -0.09281  -5.59255
  13                   -0.09294  -5.45265
  14                   -0.09278  -5.31000
  15                   -0.09254  -5.16798
  16                   -0.09214  -5.02608
  17                   -0.09145  -4.88314
  18                   -0.09037  -4.73970
  19                   -0.08887  -4.59613
  20                   -0.08695  -4.45252
  21                   -0.08465  -4.30889
  22                   -0.08199  -4.16526
  23                   -0.07901  -4.02163
  24                   -0.07576  -3.87800
  25                   -0.07226  -3.73436
  26                   -0.06857  -3.59073
  27                   -0.06471  -3.44710
  28                   -0.06072  -3.30346
  29                   -0.05663  -3.15983
  30                   -0.05249  -3.01620
  31                   -0.04832  -2.87256
  32                   -0.04417  -2.72893
  33                   -0.04007  -2.58530
  34                   -0.03605  -2.44166
  35                   -0.03215  -2.29803
  36                   -0.02841  -2.15440
  37                   -0.02485  -2.01076
  38                   -0.02149  -1.86713
  39                   -0.01834  -1.72350
  40                   -0.01541  -1.57987
  41                   -0.01270  -1.43624
  42                   -0.01023  -1.29261
  43                   -0.00800  -1.14898
  44                   -0.00605  -1.00535
  45                   -0.00436  -0.86172
  46                   -0.00296  -0.71809
  47                   -0.00184  -0.57447
  48                   -0.00100  -0.43086
  49                   -0.00043  -0.28726
  50                   -0.00010  -0.14366
  51                    0.00000   0.00000
  52                   -0.00010   0.14366
  53                   -0.00038   0.28726
  54                   -0.00081   0.43085
  55                   -0.00137   0.57447
  56                   -0.00202   0.71809
  57                   -0.00276   0.86171
  58                   -0.00355   1.00534
  59                   -0.00438   1.14897
  60                   -0.00525   1.29261
  61                   -0.00613   1.43624
  62                   -0.00702   1.57987
  63                   -0.00790   1.72351
  64                   -0.00877   1.86714
  65                   -0.00963   2.01078
  66                   -0.01047   2.15441
  67                   -0.01128   2.29805
  68                   -0.01207   2.44168
  69                   -0.01282   2.58532
  70                   -0.01355   2.72895
  71                   -0.01425   2.87259
  72                   -0.01491   3.01622
  73                   -0.01554   3.15986
  74                   -0.01614   3.30350
  75                   -0.01671   3.44713
  76                   -0.01724   3.59077
  77                   -0.01774   3.73441
  78                   -0.01821   3.87804
  79                   -0.01866   4.02168
  80                   -0.01907   4.16532
  81                   -0.01946   4.30895
  82                   -0.01982   4.45259
  83                   -0.02015   4.59622
  84                   -0.02046   4.73986
  85                   -0.02075   4.88348
  86                   -0.02099   5.02689
  87                   -0.02122   5.16838
  88                   -0.02139   5.30867
  89                   -0.02163   5.44518
  90                   -0.02183   5.58782
  91                   -0.02201   5.73076
  92                   -0.02217   5.87353
  93                   -0.02231   6.01529
  94                   -0.02245   6.15452
  95                   -0.02257   6.29369
  96                   -0.02268   6.43325
  97                   -0.02277   6.57039
  98                   -0.02288   6.70645
  99                   -0.02297   6.84497
 100                   -0.02305   6.98434
 101                   -0.02312   7.12197
 --------------------------------------------------------------------------
 
 Total number of points:                  100
 Total number of gradient calculations:   100
 Total number of Hessian calculations:      0
 IRC-IRC-IRC-IRC-IRC-IRC-IRC-IRC-IRC-IRC-IRC-IRC-IRC-IRC-IRC-IRC-IRC-IRC
 Leave Link  123 at Thu Nov 10 13:05:32 2022, MaxMem=  8053063680 cpu:               0.2 elap:               0.0
 (Enter /project/chenjingdan/g16/l202.exe)
                          Input orientation:                          
 ---------------------------------------------------------------------
 Center     Atomic      Atomic             Coordinates (Angstroms)
 Number     Number       Type             X           Y           Z
 ---------------------------------------------------------------------
      1          6           0       -1.234349    0.815883   -0.070362
      2          1           0       -1.473141    1.178190   -1.076987
      3          1           0       -2.000910    1.228855    0.595065
      4          6           0       -1.277619   -0.737158   -0.062612
      5          1           0       -2.075623   -1.090205    0.603614
      6          1           0       -1.544327   -1.087212   -1.067635
      7          6           0        0.150132    1.399330    0.337377
      8          1           0        0.189074    2.461740    0.072523
      9          1           0        0.252849    1.350437    1.437108
     10          6           0        1.274338    0.626172   -0.299000
     11          1           0        2.098819    1.166342   -0.754753
     12          6           0        1.232219   -0.709086   -0.294784
     13          1           0        2.030712   -1.304948   -0.740692
     14          6           0        0.051907   -1.402266    0.340024
     15          1           0        0.032375   -2.467949    0.087565
     16          1           0        0.148965   -1.350407    1.431887
 ---------------------------------------------------------------------
                    Distance matrix (angstroms):
                    1          2          3          4          5
     1  C    0.000000
     2  H    1.096167   0.000000
     3  H    1.095881   1.754100   0.000000
     4  C    1.553663   2.176177   2.195654   0.000000
     5  H    2.189785   2.886697   2.320279   1.097866   0.000000
     6  H    2.170809   2.266540   2.887422   1.097152   1.753670
     7  C    1.556743   2.164333   2.173119   2.600585   3.350022
     8  H    2.180687   2.394125   2.566922   3.521704   4.245848
     9  H    2.184027   3.054404   2.408993   2.991579   3.474656
    10  C    2.526218   2.908371   3.448163   2.902934   3.870775
    11  H    3.420705   3.586485   4.316677   3.937348   4.935903
    12  C    2.908583   3.390077   3.873057   2.520710   3.448795
    13  H    3.950682   4.307674   4.945541   3.424504   4.326114
    14  C    2.596740   3.315486   3.346924   1.540169   2.166390
    15  H    3.523220   4.113039   4.249489   2.175838   2.570630
    16  H    2.977100   3.914011   3.460466   2.155166   2.387998
                    6          7          8          9         10
     6  H    0.000000
     7  C    3.320864   0.000000
     8  H    4.110925   1.095618   0.000000
     9  H    3.930104   1.105600   1.761009   0.000000
    10  C    3.386939   1.505519   2.164518   2.140578   0.000000
    11  H    4.295220   2.245978   2.451442   2.871542   1.085940
    12  C    2.906800   2.452745   3.358155   2.863609   1.335929
    13  H    3.596554   3.465823   4.270935   3.867129   2.120476
    14  C    2.151448   2.803318   3.875683   2.970075   2.453008
    15  H    2.393097   3.877127   4.932202   4.055853   3.356409
    16  H    3.030532   2.959562   4.047462   2.702847   2.858198
                   11         12         13         14         15
    11  H    0.000000
    12  C    2.116553   0.000000
    13  H    2.472268   1.091547   0.000000
    14  C    3.462100   1.508847   2.256787   0.000000
    15  H    4.264711   2.163195   2.455999   1.095352   0.000000
    16  H    3.862299   2.136850   2.874568   1.097394   1.752054
                   16
    16  H    0.000000
 Symmetry turned off by external request.
 Stoichiometry    C6H10
 Framework group  C1[X(C6H10)]
 Deg. of freedom    42
 Full point group                 C1      NOp   1
 Rotational constants (GHZ):           4.6261324           4.5581514           2.5923562
 Leave Link  202 at Thu Nov 10 13:05:32 2022, MaxMem=  8053063680 cpu:               0.1 elap:               0.0
 (Enter /project/chenjingdan/g16/l601.exe)
 Copying SCF densities to generalized density rwf, IOpCl= 0 IROHF=0.

 **********************************************************************

            Population analysis using the SCF Density.

 **********************************************************************

 Alpha  occ. eigenvalues --  -10.17996 -10.17866 -10.17767 -10.17692 -10.17292
 Alpha  occ. eigenvalues --  -10.17182  -0.82226  -0.73128  -0.72955  -0.61413
 Alpha  occ. eigenvalues --   -0.58679  -0.49520  -0.48687  -0.46526  -0.39666
 Alpha  occ. eigenvalues --   -0.39495  -0.39088  -0.37145  -0.37033  -0.31801
 Alpha  occ. eigenvalues --   -0.31236  -0.29660  -0.23364
 Alpha virt. eigenvalues --    0.02903   0.08790   0.11404   0.13056   0.14802
 Alpha virt. eigenvalues --    0.15038   0.16927   0.18696   0.19118   0.20919
 Alpha virt. eigenvalues --    0.21426   0.23523   0.24810   0.25160   0.31206
 Alpha virt. eigenvalues --    0.36875   0.41975   0.50285   0.51557   0.54789
 Alpha virt. eigenvalues --    0.56711   0.58850   0.61798   0.62571   0.63079
 Alpha virt. eigenvalues --    0.64500   0.65941   0.69619   0.71110   0.72086
 Alpha virt. eigenvalues --    0.77932   0.82095   0.85099   0.85487   0.86055
 Alpha virt. eigenvalues --    0.86206   0.87895   0.88599   0.92412   0.92685
 Alpha virt. eigenvalues --    0.93712   0.94519   0.97876   0.98967   1.11725
 Alpha virt. eigenvalues --    1.14040   1.17666   1.35291   1.37832   1.39524
 Alpha virt. eigenvalues --    1.50046   1.52904   1.60564   1.65792   1.72833
 Alpha virt. eigenvalues --    1.73097   1.83214   1.88184   1.88424   1.89605
 Alpha virt. eigenvalues --    1.92255   1.97157   1.99810   2.06443   2.11744
 Alpha virt. eigenvalues --    2.17787   2.19485   2.21078   2.30528   2.31002
 Alpha virt. eigenvalues --    2.37364   2.38471   2.43776   2.47573   2.51306
 Alpha virt. eigenvalues --    2.57239   2.63405   2.66707   2.73368   2.88128
 Alpha virt. eigenvalues --    2.98963   4.11336   4.20058   4.24455   4.40031
 Alpha virt. eigenvalues --    4.46077   4.64355
          Condensed to atoms (all electrons):
               1          2          3          4          5          6
     1  C    5.011739   0.377390   0.365210   0.369107  -0.034929  -0.035431
     2  H    0.377390   0.600413  -0.038969  -0.034935   0.004801  -0.010972
     3  H    0.365210  -0.038969   0.612212  -0.034287  -0.009869   0.004784
     4  C    0.369107  -0.034935  -0.034287   5.008265   0.365544   0.377282
     5  H   -0.034929   0.004801  -0.009869   0.365544   0.613691  -0.038800
     6  H   -0.035431  -0.010972   0.004784   0.377282  -0.038800   0.603070
     7  C    0.372303  -0.037277  -0.032211  -0.041933   0.002220   0.002314
     8  H   -0.030737  -0.006913   0.000102   0.004523  -0.000140  -0.000171
     9  H   -0.038583   0.005614  -0.005729  -0.004132   0.000779  -0.000013
    10  C   -0.038599  -0.002328   0.004458  -0.020246   0.000696   0.001670
    11  H    0.003800   0.000208  -0.000153  -0.000092   0.000013  -0.000009
    12  C   -0.020452   0.001677   0.000688  -0.038682   0.004539  -0.002380
    13  H   -0.000082  -0.000010   0.000012   0.003737  -0.000151   0.000210
    14  C   -0.041640   0.002224   0.002190   0.376102  -0.032514  -0.038704
    15  H    0.004594  -0.000169  -0.000141  -0.030690   0.000088  -0.007255
    16  H   -0.004383  -0.000021   0.000820  -0.040631  -0.006240   0.006046
               7          8          9         10         11         12
     1  C    0.372303  -0.030737  -0.038583  -0.038599   0.003800  -0.020452
     2  H   -0.037277  -0.006913   0.005614  -0.002328   0.000208   0.001677
     3  H   -0.032211   0.000102  -0.005729   0.004458  -0.000153   0.000688
     4  C   -0.041933   0.004523  -0.004132  -0.020246  -0.000092  -0.038682
     5  H    0.002220  -0.000140   0.000779   0.000696   0.000013   0.004539
     6  H    0.002314  -0.000171  -0.000013   0.001670  -0.000009  -0.002380
     7  C    5.027342   0.368445   0.368657   0.387761  -0.053419  -0.045909
     8  H    0.368445   0.599894  -0.039564  -0.029720  -0.005709   0.005003
     9  H    0.368657  -0.039564   0.605570  -0.036527   0.003730  -0.010907
    10  C    0.387761  -0.029720  -0.036527   4.868420   0.367302   0.697947
    11  H   -0.053419  -0.005709   0.003730   0.367302   0.607978  -0.042735
    12  C   -0.045909   0.005003  -0.010907   0.697947  -0.042735   4.871092
    13  H    0.006258  -0.000147  -0.000166  -0.042519  -0.008394   0.366642
    14  C   -0.022156   0.000314   0.003004  -0.045991   0.006335   0.387572
    15  H    0.000311  -0.000001  -0.000098   0.004983  -0.000148  -0.029762
    16  H    0.003211  -0.000102   0.003571  -0.010858  -0.000167  -0.036347
              13         14         15         16
     1  C   -0.000082  -0.041640   0.004594  -0.004383
     2  H   -0.000010   0.002224  -0.000169  -0.000021
     3  H    0.000012   0.002190  -0.000141   0.000820
     4  C    0.003737   0.376102  -0.030690  -0.040631
     5  H   -0.000151  -0.032514   0.000088  -0.006240
     6  H    0.000210  -0.038704  -0.007255   0.006046
     7  C    0.006258  -0.022156   0.000311   0.003211
     8  H   -0.000147   0.000314  -0.000001  -0.000102
     9  H   -0.000166   0.003004  -0.000098   0.003571
    10  C   -0.042519  -0.045991   0.004983  -0.010858
    11  H   -0.008394   0.006335  -0.000148  -0.000167
    12  C    0.366642   0.387572  -0.029762  -0.036347
    13  H    0.607799  -0.052461  -0.005584   0.003702
    14  C   -0.052461   5.021224   0.369171   0.369195
    15  H   -0.005584   0.369171   0.599396  -0.039913
    16  H    0.003702   0.369195  -0.039913   0.605992
 Mulliken charges:
               1
     1  C   -0.259305
     2  H    0.139267
     3  H    0.130883
     4  C   -0.258933
     5  H    0.130271
     6  H    0.138360
     7  C   -0.305918
     8  H    0.134922
     9  H    0.144795
    10  C   -0.106450
    11  H    0.121461
    12  C   -0.107984
    13  H    0.121154
    14  C   -0.303865
    15  H    0.135217
    16  H    0.146126
 Sum of Mulliken charges =  -0.00000
 Mulliken charges with hydrogens summed into heavy atoms:
               1
     1  C    0.010845
     4  C    0.009698
     7  C   -0.026202
    10  C    0.015011
    12  C    0.013171
    14  C   -0.022522
 APT charges:
               1
     1  C   -0.866412
     2  H    0.412750
     3  H    0.462369
     4  C   -0.873369
     5  H    0.461768
     6  H    0.410328
     7  C   -0.873210
     8  H    0.491751
     9  H    0.369535
    10  C   -0.507168
    11  H    0.513436
    12  C   -0.509232
    13  H    0.515929
    14  C   -0.868741
    15  H    0.493130
    16  H    0.367136
 Sum of APT charges =  -0.00000
 APT charges with hydrogens summed into heavy atoms:
               1
     1  C    0.008707
     4  C   -0.001274
     7  C   -0.011924
    10  C    0.006268
    12  C    0.006697
    14  C   -0.008475
 Electronic spatial extent (au):  <R**2>=            550.3271
 Charge=             -0.0000 electrons
 Dipole moment (field-independent basis, Debye):
    X=             -0.2277    Y=              0.0101    Z=              0.0907  Tot=              0.2453
 Quadrupole moment (field-independent basis, Debye-Ang):
   XX=            -38.2505   YY=            -36.7702   ZZ=            -38.3076
   XY=              0.0229   XZ=             -0.8322   YZ=              0.0045
 Traceless Quadrupole moment (field-independent basis, Debye-Ang):
   XX=             -0.4744   YY=              1.0060   ZZ=             -0.5315
   XY=              0.0229   XZ=             -0.8322   YZ=              0.0045
 Octapole moment (field-independent basis, Debye-Ang**2):
  XXX=              3.6045  YYY=             -0.3167  ZZZ=              0.8883  XYY=              2.6149
  XXY=              0.0444  XXZ=             -2.3325  XZZ=             -0.3259  YZZ=              0.0547
  YYZ=             -1.5745  XYZ=              0.0348
 Hexadecapole moment (field-independent basis, Debye-Ang**3):
 XXXX=           -330.9789 YYYY=           -326.6991 ZZZZ=            -88.8807 XXXY=             -0.1017
 XXXZ=              3.0250 YYYX=             -0.2189 YYYZ=             -0.0841 ZZZX=             13.6177
 ZZZY=             -0.2479 XXYY=           -108.6992 XXZZ=            -68.9294 YYZZ=            -70.6067
 XXYZ=              0.0665 YYXZ=              1.8537 ZZXY=             -0.0207
 N-N= 2.361389821948D+02 E-N=-1.014603860383D+03  KE= 2.322702293330D+02
  Exact polarizability:       0.000       0.000       0.000       0.000       0.000       0.000
 Approx polarizability:      76.037       0.716     101.447      -6.439       0.218      69.441
 No NMR shielding tensors so no spin-rotation constants.
 Leave Link  601 at Thu Nov 10 13:05:32 2022, MaxMem=  8053063680 cpu:               1.6 elap:               0.1
 (Enter /project/chenjingdan/g16/l9999.exe)

 This type of calculation cannot be archived.


 NOTHING RESEMBLES A NEW PHENOMENON AS MUCH AS A MISTAKE.

                               -- ENRICO FERMI (?)
 Job cpu time:       0 days  1 hours 28 minutes 34.2 seconds.
 Elapsed time:       0 days  0 hours  6 minutes 16.9 seconds.
 File lengths (MBytes):  RWF=     14 Int=      0 D2E=      0 Chk=      4 Scr=      1
 Normal termination of Gaussian 16 at Thu Nov 10 13:05:32 2022.
