 Entering Gaussian System, Link 0=g16
 Initial command:
 /project/chenjingdan/g16/l1.exe "/scratch/chenjingdan/scratch/Gau-150166.inp" -scrdir="/scratch/chenjingdan/scratch/"
 Entering Link 1 = /project/chenjingdan/g16/l1.exe PID=    150167.
  
 Copyright (c) 1988-2019, Gaussian, Inc.  All Rights Reserved.
  
 This is part of the Gaussian(R) 16 program.  It is based on
 the Gaussian(R) 09 system (copyright 2009, Gaussian, Inc.),
 the Gaussian(R) 03 system (copyright 2003, Gaussian, Inc.),
 the Gaussian(R) 98 system (copyright 1998, Gaussian, Inc.),
 the Gaussian(R) 94 system (copyright 1995, Gaussian, Inc.),
 the Gaussian 92(TM) system (copyright 1992, Gaussian, Inc.),
 the Gaussian 90(TM) system (copyright 1990, Gaussian, Inc.),
 the Gaussian 88(TM) system (copyright 1988, Gaussian, Inc.),
 the Gaussian 86(TM) system (copyright 1986, Carnegie Mellon
 University), and the Gaussian 82(TM) system (copyright 1983,
 Carnegie Mellon University). Gaussian is a federally registered
 trademark of Gaussian, Inc.
  
 This software contains proprietary and confidential information,
 including trade secrets, belonging to Gaussian, Inc.
  
 This software is provided under written license and may be
 used, copied, transmitted, or stored only in accord with that
 written license.
  
 The following legend is applicable only to US Government
 contracts under FAR:
  
                    RESTRICTED RIGHTS LEGEND
  
 Use, reproduction and disclosure by the US Government is
 subject to restrictions as set forth in subparagraphs (a)
 and (c) of the Commercial Computer Software - Restricted
 Rights clause in FAR 52.227-19.
  
 Gaussian, Inc.
 340 Quinnipiac St., Bldg. 40, Wallingford CT 06492
  
  
 ---------------------------------------------------------------
 Warning -- This program may not be used in any manner that
 competes with the business of Gaussian, Inc. or will provide
 assistance to any competitor of Gaussian, Inc.  The licensee
 of this program is prohibited from giving any competitor of
 Gaussian, Inc. access to this program.  By using this program,
 the user acknowledges that Gaussian, Inc. is engaged in the
 business of creating and licensing software in the field of
 computational chemistry and represents and warrants to the
 licensee that it is not a competitor of Gaussian, Inc. and that
 it will not use this program in any manner prohibited above.
 ---------------------------------------------------------------
  

 Cite this work as:
 Gaussian 16, Revision C.01,
 M. J. Frisch, G. W. Trucks, H. B. Schlegel, G. E. Scuseria, 
 M. A. Robb, J. R. Cheeseman, G. Scalmani, V. Barone, 
 G. A. Petersson, H. Nakatsuji, X. Li, M. Caricato, A. V. Marenich, 
 J. Bloino, B. G. Janesko, R. Gomperts, B. Mennucci, H. P. Hratchian, 
 J. V. Ortiz, A. F. Izmaylov, J. L. Sonnenberg, D. Williams-Young, 
 F. Ding, F. Lipparini, F. Egidi, J. Goings, B. Peng, A. Petrone, 
 T. Henderson, D. Ranasinghe, V. G. Zakrzewski, J. Gao, N. Rega, 
 G. Zheng, W. Liang, M. Hada, M. Ehara, K. Toyota, R. Fukuda, 
 J. Hasegawa, M. Ishida, T. Nakajima, Y. Honda, O. Kitao, H. Nakai, 
 T. Vreven, K. Throssell, J. A. Montgomery, Jr., J. E. Peralta, 
 F. Ogliaro, M. J. Bearpark, J. J. Heyd, E. N. Brothers, K. N. Kudin, 
 V. N. Staroverov, T. A. Keith, R. Kobayashi, J. Normand, 
 K. Raghavachari, A. P. Rendell, J. C. Burant, S. S. Iyengar, 
 J. Tomasi, M. Cossi, J. M. Millam, M. Klene, C. Adamo, R. Cammi, 
 J. W. Ochterski, R. L. Martin, K. Morokuma, O. Farkas, 
 J. B. Foresman, and D. J. Fox, Gaussian, Inc., Wallingford CT, 2019.
 
 ******************************************
 Gaussian 16:  ES64L-G16RevC.01  3-Jul-2019
                11-Nov-2022 
 ******************************************
 %nproc=16
 Will use up to   16 processors via shared memory.
 %mem=60GB
 %chk=N1_R_PA1_ts2_f9.chk
 -------------------------------------------------------
 # irc=(calcfc,maxpoints=30,stepsize=5) 6-31g(d,p) m062x
 -------------------------------------------------------
 1/10=4,18=10,26=3,38=1,39=5,42=30,44=3,172=1/1,23;
 2/12=2,17=6,18=5,29=1,40=1/2;
 3/5=1,6=6,7=101,11=2,25=1,30=1,71=2,74=-55,140=1/1,2,3;
 4//1;
 5/5=2,38=5/2;
 8/6=4,10=90,11=11/1;
 11/6=1,8=1,9=11,15=111,16=1/1,2,10;
 10/6=1,13=1/2;
 6/7=2,8=2,9=2,10=2,28=1/1;
 7/10=1,25=1/1,2,3,16;
 1/10=4,18=10,26=3,39=5,42=30,44=3/23(2);
 2/29=1/2;
 99/5=20/99;
 2/29=1/2;
 3/5=1,6=6,7=101,11=2,25=1,30=1,71=2,74=-55,140=1/1,2,3;
 4/5=5,16=3,69=1/1;
 5/5=2,38=5/2;
 8/6=4,10=90,11=11/1;
 11/6=1,8=1,9=11,15=111,16=1/1,2,10;
 10/6=1,13=1/2;
 7/10=1,25=1/1,2,3,16;
 1/18=10,26=3,39=5,42=30,44=3/23(-8);
 2/29=1/2;
 6/7=2,8=2,9=2,10=2,19=2,28=1/1;
 99/5=20,9=1/99;
 ---------------------
 N1_S_PA1_ts2_opts.out
 ---------------------
 Symbolic Z-matrix:
 Charge =  0 Multiplicity = 1
 O                    -2.15494   2.36352   2.66719 
 N                     1.18987   2.27062   1.32793 
 O                    -0.1415    2.28846   3.55778 
 O                     1.52833   0.94958  -0.48555 
 C                    -0.80109   3.09733   0.06415 
 N                     7.62981   1.49246   1.45261 
 C                     6.18474   1.49532   1.19704 
 C                    -0.89594   2.31499   2.46275 
 C                     3.45151   1.60341   0.75336 
 C                    -0.24631   2.24972   1.20873 
 C                     1.96936   1.57332   0.46671 
 C                     4.21075   0.57715   0.19579 
 C                     5.43927   2.52027   1.7655 
 C                     4.0727    2.58371   1.53269 
 C                     5.58289   0.50653   0.40872 
 O                     8.35803   1.02002   0.60022 
 O                     8.00469   1.98883   2.49841 
 H                    -0.73701   0.98662   0.71121 
 H                     1.59199   2.60101   2.1931 
 H                    -0.72564   2.12374   4.31431 
 H                    -1.89335   3.08244   0.04595 
 H                    -0.46432   4.13582   0.1524 
 H                    -0.44553   2.68711  -0.88391 
 H                     3.72117  -0.18318  -0.40463 
 H                     5.95022   3.25587   2.37493 
 H                     3.50692   3.4161    1.9373 
 H                    -2.79278   1.98486   1.82436 
 O                    -1.34492   0.12533   0.13925 
 O                    -3.46027  -0.17366  -1.14416 
 C                    -2.06703   5.70062  -2.74213 
 O                    -3.37356  -1.06415   1.23067 
 C                    -3.63844   1.07653  -3.92777 
 C                     1.97871   0.18091   4.41908 
 O                    -3.46279   1.40019   0.90838 
 C                     0.7535   -2.17497   0.16875 
 C                    -2.52833  -2.06038   4.05372 
 C                    -5.6066    3.51931   0.08472 
 C                    -3.86609   4.54106  -1.40066 
 C                    -5.60774  -1.22478  -0.92034 
 C                    -7.62266   0.08065  -1.24043 
 C                    -2.93066   3.39214  -3.27661 
 C                    -2.97752   4.53005  -2.47346 
 C                    -3.86185  -3.04253  -0.0238 
 C                    -4.60414   2.30276  -1.91909 
 C                    -4.85293  -0.10748  -1.24208 
 C                    -5.20423  -2.65995  -0.62482 
 C                    -3.72742   2.27744  -3.01932 
 C                    -5.17485  -3.51511  -1.92528 
 C                    -4.68212   3.44783  -1.10613 
 C                    -7.00079  -1.10473  -0.87313 
 C                    -6.84055   1.1676   -1.62668 
 C                    -1.83048  -2.91716   1.31516 
 C                    -3.02623  -2.35816   0.84721 
 C                    -4.4482   -4.8093   -1.5184 
 C                    -5.44358   1.10936  -1.60641 
 C                    -2.32468  -4.91444   0.00752 
 C                    -0.86816  -2.12728   2.13768 
 C                    -3.47948  -4.31071  -0.47158 
 C                    -0.27532  -0.94543   4.15674 
 C                    -1.51802  -4.21722   0.90273 
 C                    -1.20044  -1.70402   3.43392 
 C                     1.27107  -1.03295   2.3347 
 C                     0.37826  -1.78688   1.57705 
 C                     0.96692  -0.60456   3.62577 
 C                    -6.40034  -3.10459   0.26288 
 C                    -7.61669  -2.38135  -0.34654 
 P                    -2.85635   0.15266   0.30689 
 H                    -1.95196   5.87542  -3.815 
 H                    -2.45087   6.61556  -2.28488 
 H                    -1.06812   5.51651  -2.33179 
 H                    -3.04882   0.28046  -3.46298 
 H                    -3.15974   1.34584  -4.87165 
 H                    -4.62915   0.66922  -4.14759 
 H                     2.74184  -0.48007   4.84235 
 H                     2.49482   0.90637   3.7815 
 H                     1.51217   0.72282   5.24553 
 H                     1.11571  -3.2072    0.11782 
 H                    -0.10325  -2.0819   -0.50116 
 H                     1.53471  -1.51002  -0.20394 
 H                    -2.77622  -3.11051   3.87607 
 H                    -3.33416  -1.45766   3.62353 
 H                    -2.51035  -1.88945   5.13244 
 H                    -6.6333    3.75336  -0.21581 
 H                    -5.62048   2.57245   0.6272 
 H                    -5.27784   4.30503   0.76926 
 H                    -3.91958   5.42167  -0.76367 
 H                    -8.70462   0.16866  -1.21256 
 H                    -2.25491   3.36921  -4.12904 
 H                    -4.58415  -2.98213  -2.67782 
 H                    -6.17567  -3.68138  -2.33323 
 H                    -7.31264   2.1002   -1.92059 
 H                    -3.94205  -5.29454  -2.35701 
 H                    -5.14557  -5.54131  -1.09289 
 H                    -2.0354   -5.90381  -0.33369 
 H                    -0.52848  -0.63352   5.16926 
 H                    -0.59793  -4.66347   1.26812 
 H                     2.23564  -0.77276   1.90158 
 H                    -6.5083   -4.19231   0.29689 
 H                    -6.22909  -2.74559   1.28307 
 H                    -8.40626  -2.18938   0.3848 
 H                    -8.06395  -2.96787  -1.1582 
 O                     6.28416  -0.55632  -0.07734 
 C                     6.7598   -0.38414  -1.39993 
 H                     5.9338   -0.38888  -2.12072 
 H                     7.34239   0.53678  -1.49072 
 C                     7.66683  -1.56437  -1.67433 
 C                     8.26516  -1.52736  -3.08378 
 F                     8.68965  -1.58964  -0.80074 
 F                     6.98021  -2.72216  -1.56244 
 F                     7.28519  -1.53555  -3.9926 
 F                     8.98009  -0.41232  -3.24744 
 F                     9.04978  -2.57711  -3.28871 
 
 IRC-IRC-IRC-IRC-IRC-IRC-IRC-IRC-IRC-IRC-IRC-IRC-IRC-IRC-IRC-IRC-IRC-IRC
 ------------------------------------------------------------------------
 INPUT DATA FOR L123
 ------------------------------------------------------------------------
 GENERAL PARAMETERS:
 Follow reaction path in both directions.
 Maximum points per path      =  30
 Step size                    =   0.050 bohr
 Integration scheme           = HPC                                 
    Redo corrector integration= Yes                                 
    DWI Weight Power          =  2
    DWI will use Hessian update vectors when possible.
    Max correction cycles     =  20
 Initial Hessian              = CalcFC
 Hessian evaluation           = All updating
 Hessian updating method      = Bofill                              
 ------------------------------------------------------------------------
 IRC-IRC-IRC-IRC-IRC-IRC-IRC-IRC-IRC-IRC-IRC-IRC-IRC-IRC-IRC-IRC-IRC-IRC
 Symmetry turned off by external request.
 Stoichiometry    C48H46F5N2O10P
 Framework group  C1[X(C48H46F5N2O10P)]
 Deg. of freedom   330
 Full point group                 C1      NOp   1
                          Input orientation:                          
 ---------------------------------------------------------------------
 Center     Atomic      Atomic             Coordinates (Angstroms)
 Number     Number       Type             X           Y           Z
 ---------------------------------------------------------------------
      1          8           0       -2.154939    2.363520    2.667189
      2          7           0        1.189871    2.270620    1.327929
      3          8           0       -0.141499    2.288460    3.557779
      4          8           0        1.528330    0.949580   -0.485551
      5          6           0       -0.801089    3.097330    0.064149
      6          7           0        7.629810    1.492459    1.452609
      7          6           0        6.184740    1.495319    1.197039
      8          6           0       -0.895939    2.314990    2.462749
      9          6           0        3.451510    1.603409    0.753359
     10          6           0       -0.246309    2.249720    1.208729
     11          6           0        1.969360    1.573320    0.466709
     12          6           0        4.210750    0.577149    0.195789
     13          6           0        5.439271    2.520269    1.765499
     14          6           0        4.072701    2.583709    1.532689
     15          6           0        5.582890    0.506529    0.408719
     16          8           0        8.358030    1.020019    0.600219
     17          8           0        8.004691    1.988829    2.498409
     18          1           0       -0.737010    0.986620    0.711209
     19          1           0        1.591991    2.601010    2.193099
     20          1           0       -0.725639    2.123740    4.314309
     21          1           0       -1.893349    3.082440    0.045949
     22          1           0       -0.464319    4.135820    0.152399
     23          1           0       -0.445529    2.687110   -0.883911
     24          1           0        3.721170   -0.183181   -0.404631
     25          1           0        5.950221    3.255869    2.374929
     26          1           0        3.506921    3.416099    1.937299
     27          1           0       -2.792779    1.984860    1.824359
     28          8           0       -1.344920    0.125330    0.139249
     29          8           0       -3.460270   -0.173659   -1.144161
     30          6           0       -2.067029    5.700620   -2.742131
     31          8           0       -3.373560   -1.064149    1.230669
     32          6           0       -3.638440    1.076531   -3.927771
     33          6           0        1.978710    0.180910    4.419079
     34          8           0       -3.462790    1.400191    0.908379
     35          6           0        0.753500   -2.174970    0.168749
     36          6           0       -2.528330   -2.060380    4.053719
     37          6           0       -5.606599    3.519311    0.084719
     38          6           0       -3.866089    4.541061   -1.400661
     39          6           0       -5.607740   -1.224779   -0.920341
     40          6           0       -7.622660    0.080651   -1.240431
     41          6           0       -2.930659    3.392140   -3.276611
     42          6           0       -2.977519    4.530050   -2.473461
     43          6           0       -3.861850   -3.042529   -0.023801
     44          6           0       -4.604139    2.302761   -1.919091
     45          6           0       -4.852930   -0.107479   -1.242081
     46          6           0       -5.204230   -2.659949   -0.624821
     47          6           0       -3.727419    2.277441   -3.019321
     48          6           0       -5.174850   -3.515109   -1.925281
     49          6           0       -4.682119    3.447831   -1.106131
     50          6           0       -7.000790   -1.104729   -0.873131
     51          6           0       -6.840550    1.167601   -1.626681
     52          6           0       -1.830480   -2.917160    1.315159
     53          6           0       -3.026230   -2.358160    0.847209
     54          6           0       -4.448201   -4.809299   -1.518401
     55          6           0       -5.443580    1.109361   -1.606411
     56          6           0       -2.324681   -4.914440    0.007519
     57          6           0       -0.868160   -2.127280    2.137679
     58          6           0       -3.479480   -4.310709   -0.471581
     59          6           0       -0.275320   -0.945430    4.156739
     60          6           0       -1.518020   -4.217220    0.902729
     61          6           0       -1.200440   -1.704020    3.433919
     62          6           0        1.271070   -1.032950    2.334699
     63          6           0        0.378260   -1.786880    1.577049
     64          6           0        0.966920   -0.604560    3.625769
     65          6           0       -6.400340   -3.104589    0.262879
     66          6           0       -7.616690   -2.381349   -0.346541
     67         15           0       -2.856350    0.152660    0.306889
     68          1           0       -1.951959    5.875420   -3.815001
     69          1           0       -2.450869    6.615560   -2.284881
     70          1           0       -1.068119    5.516510   -2.331791
     71          1           0       -3.048820    0.280461   -3.462981
     72          1           0       -3.159740    1.345841   -4.871651
     73          1           0       -4.629150    0.669221   -4.147591
     74          1           0        2.741840   -0.480070    4.842349
     75          1           0        2.494820    0.906370    3.781499
     76          1           0        1.512170    0.722820    5.245529
     77          1           0        1.115710   -3.207200    0.117819
     78          1           0       -0.103250   -2.081900   -0.501161
     79          1           0        1.534710   -1.510020   -0.203941
     80          1           0       -2.776220   -3.110510    3.876069
     81          1           0       -3.334160   -1.457659    3.623529
     82          1           0       -2.510350   -1.889450    5.132439
     83          1           0       -6.633299    3.753361   -0.215811
     84          1           0       -5.620479    2.572451    0.627199
     85          1           0       -5.277839    4.305031    0.769259
     86          1           0       -3.919579    5.421671   -0.763671
     87          1           0       -8.704620    0.168661   -1.212561
     88          1           0       -2.254909    3.369210   -4.129041
     89          1           0       -4.584150   -2.982129   -2.677821
     90          1           0       -6.175670   -3.681379   -2.333231
     91          1           0       -7.312639    2.100201   -1.920591
     92          1           0       -3.942051   -5.294539   -2.357011
     93          1           0       -5.145571   -5.541309   -1.092891
     94          1           0       -2.035401   -5.903810   -0.333691
     95          1           0       -0.528480   -0.633520    5.169259
     96          1           0       -0.597930   -4.663470    1.268119
     97          1           0        2.235640   -0.772760    1.901579
     98          1           0       -6.508300   -4.192309    0.296889
     99          1           0       -6.229090   -2.745589    1.283069
    100          1           0       -8.406260   -2.189379    0.384799
    101          1           0       -8.063950   -2.967869   -1.158201
    102          8           0        6.284160   -0.556321   -0.077341
    103          6           0        6.759800   -0.384141   -1.399931
    104          1           0        5.933800   -0.388881   -2.120721
    105          1           0        7.342390    0.536779   -1.490721
    106          6           0        7.666830   -1.564371   -1.674331
    107          6           0        8.265160   -1.527361   -3.083781
    108          9           0        8.689650   -1.589641   -0.800741
    109          9           0        6.980210   -2.722161   -1.562441
    110          9           0        7.285190   -1.535551   -3.992601
    111          9           0        8.980090   -0.412321   -3.247441
    112          9           0        9.049780   -2.577111   -3.288711
 ---------------------------------------------------------------------
 Rotational constants (GHZ):           0.0544229           0.0186658           0.0177952
 Standard basis: 6-31G(d,p) (6D, 7F)
  1224 basis functions,  2194 primitive gaussians,  1224 cartesian basis functions
   244 alpha electrons      244 beta electrons
       nuclear repulsion energy     11259.2519873069 Hartrees.
 NAtoms=  112 NActive=  112 NUniq=  112 SFac= 1.00D+00 NAtFMM=   60 NAOKFM=T Big=T
 Integral buffers will be    131072 words long.
 Raffenetti 2 integral format.
 Two-electron integral symmetry is turned off.
 One-electron integrals computed using PRISM.
 NBasis=  1224 RedAO= T EigKep=  2.36D-04  NBF=  1224
 NBsUse=  1224 1.00D-06 EigRej= -1.00D+00 NBFU=  1224
 ExpMin= 9.98D-02 ExpMax= 1.94D+04 ExpMxC= 2.91D+03 IAcc=3 IRadAn=         5 AccDes= 0.00D+00
 Harris functional with IExCor= 1009 and IRadAn=       5 diagonalized for initial guess.
 HarFok:  IExCor= 1009 AccDes= 0.00D+00 IRadAn=         5 IDoV= 1 UseB2=F ITyADJ=14
 ICtDFT=  3500011 ScaDFX=  1.000000  1.000000  1.000000  1.000000
 FoFCou: FMM=F IPFlag=           0 FMFlag=      100000 FMFlg1=        2001
         NFxFlg=           0 DoJE=T BraDBF=F KetDBF=T FulRan=T
         wScrn=  0.000000 ICntrl=       500 IOpCl=  0 I1Cent=   200000004 NGrid=           0
         NMat0=    1 NMatS0=      1 NMatT0=    0 NMatD0=    1 NMtDS0=    0 NMtDT0=    0
 Symmetry not used in FoFCou.
 Requested convergence on RMS density matrix=1.00D-08 within 128 cycles.
 Requested convergence on MAX density matrix=1.00D-06.
 Requested convergence on             energy=1.00D-06.
 No special actions if energy rises.
 Integral accuracy reduced to 1.0D-05 until final iterations.
 Initial convergence to 1.0D-05 achieved.  Increase integral accuracy.
 SCF Done:  E(RM062X) =  -3557.94689252     A.U. after   16 cycles
            NFock= 16  Conv=0.24D-08     -V/T= 2.0077
 DoSCS=F DFT=T ScalE2(SS,OS)=  1.000000  1.000000
 Range of M.O.s used for correlation:     1  1224
 NBasis=  1224 NAE=   244 NBE=   244 NFC=     0 NFV=     0
 NROrb=   1224 NOA=   244 NOB=   244 NVA=   980 NVB=   980
 Symmetrizing basis deriv contribution to polar:
 IMax=3 JMax=2 DiffMx= 0.00D+00
 G2DrvN: will do   113 centers at a time, making    1 passes.
 Calling FoFCou, ICntrl=  3107 FMM=T I1Cent=   0 AccDes= 0.00D+00.
 End of G2Drv F.D. properties file   721 does not exist.
 End of G2Drv F.D. properties file   722 does not exist.
 End of G2Drv F.D. properties file   788 does not exist.
          IDoAtm=11111111111111111111111111111111111111111111111111
          IDoAtm=11111111111111111111111111111111111111111111111111
          IDoAtm=111111111111
          Differentiating once with respect to nuclear coordinates.
 CalDSu exits because no D1Ps are significant.
          There are   339 degrees of freedom in the 1st order CPHF.  IDoFFX=6 NUNeed=     0.
    333 vectors produced by pass  0 Test12= 2.39D-13 1.00D-09 XBig12= 1.88D-01 1.02D-01.
 AX will form    72 AO Fock derivatives at one time.
    333 vectors produced by pass  1 Test12= 2.39D-13 1.00D-09 XBig12= 3.65D-02 6.91D-02.
    333 vectors produced by pass  2 Test12= 2.39D-13 1.00D-09 XBig12= 1.70D-03 6.01D-03.
    333 vectors produced by pass  3 Test12= 2.39D-13 1.00D-09 XBig12= 2.03D-05 6.15D-04.
    333 vectors produced by pass  4 Test12= 2.39D-13 1.00D-09 XBig12= 2.08D-07 6.00D-05.
    333 vectors produced by pass  5 Test12= 2.39D-13 1.00D-09 XBig12= 1.08D-09 3.03D-06.
    222 vectors produced by pass  6 Test12= 2.39D-13 1.00D-09 XBig12= 3.75D-12 1.51D-07.
     19 vectors produced by pass  7 Test12= 2.39D-13 1.00D-09 XBig12= 1.15D-14 7.33D-09.
      4 vectors produced by pass  8 Test12= 2.39D-13 1.00D-09 XBig12= 5.55D-15 1.98D-09.
      4 vectors produced by pass  9 Test12= 2.39D-13 1.00D-09 XBig12= 1.18D-14 3.65D-09.
      2 vectors produced by pass 10 Test12= 2.39D-13 1.00D-09 XBig12= 2.12D-15 1.41D-09.
 InvSVY:  IOpt=1 It=  1 EMax= 6.11D-16
 Solved reduced A of dimension  2249 with   339 vectors.
 End of Minotr F.D. properties file   721 does not exist.
 End of Minotr F.D. properties file   722 does not exist.
 End of Minotr F.D. properties file   788 does not exist.
 Hyperfine terms turned off by default for NAtoms > 100.

 **********************************************************************

            Population analysis using the SCF Density.

 **********************************************************************

 Alpha  occ. eigenvalues --  -78.22239 -25.30296 -25.30237 -25.30043 -25.27991
 Alpha  occ. eigenvalues --  -25.27818 -19.71995 -19.69223 -19.69089 -19.68840
 Alpha  occ. eigenvalues --  -19.68630 -19.68464 -19.67939 -19.64189 -19.63561
 Alpha  occ. eigenvalues --  -19.61759 -15.02211 -14.79845 -10.81402 -10.73872
 Alpha  occ. eigenvalues --  -10.71672 -10.66483 -10.65430 -10.63285 -10.63212
 Alpha  occ. eigenvalues --  -10.61975 -10.61973 -10.59850 -10.59817 -10.59336
 Alpha  occ. eigenvalues --  -10.58492 -10.57986 -10.57850 -10.56277 -10.56272
 Alpha  occ. eigenvalues --  -10.56132 -10.56079 -10.56032 -10.55994 -10.55655
 Alpha  occ. eigenvalues --  -10.55629 -10.55616 -10.55567 -10.55493 -10.55437
 Alpha  occ. eigenvalues --  -10.55409 -10.55402 -10.55377 -10.55369 -10.55113
 Alpha  occ. eigenvalues --  -10.55049 -10.55029 -10.54873 -10.54832 -10.54691
 Alpha  occ. eigenvalues --  -10.54598 -10.54068 -10.54062 -10.53837 -10.53560
 Alpha  occ. eigenvalues --  -10.53438 -10.53387 -10.53334 -10.52890 -10.52830
 Alpha  occ. eigenvalues --  -10.52117  -7.00261  -5.12066  -5.11985  -5.11965
 Alpha  occ. eigenvalues --   -1.47757  -1.41550  -1.38291  -1.38192  -1.37592
 Alpha  occ. eigenvalues --   -1.35283  -1.27384  -1.24111  -1.21952  -1.18844
 Alpha  occ. eigenvalues --   -1.18455  -1.17892  -1.16897  -1.14009  -1.10674
 Alpha  occ. eigenvalues --   -1.04623  -1.01108  -1.00219  -0.97823  -0.96659
 Alpha  occ. eigenvalues --   -0.95861  -0.93304  -0.93127  -0.92290  -0.90746
 Alpha  occ. eigenvalues --   -0.88468  -0.88088  -0.87802  -0.87307  -0.87065
 Alpha  occ. eigenvalues --   -0.86975  -0.86057  -0.84314  -0.83394  -0.82342
 Alpha  occ. eigenvalues --   -0.82046  -0.80963  -0.79629  -0.79009  -0.78555
 Alpha  occ. eigenvalues --   -0.78293  -0.76410  -0.76243  -0.76178  -0.75940
 Alpha  occ. eigenvalues --   -0.75765  -0.73674  -0.73090  -0.72265  -0.71811
 Alpha  occ. eigenvalues --   -0.71274  -0.70923  -0.70374  -0.70173  -0.69731
 Alpha  occ. eigenvalues --   -0.68018  -0.67800  -0.67710  -0.67261  -0.66513
 Alpha  occ. eigenvalues --   -0.66010  -0.65168  -0.64660  -0.64403  -0.64351
 Alpha  occ. eigenvalues --   -0.64336  -0.63743  -0.63442  -0.62715  -0.62320
 Alpha  occ. eigenvalues --   -0.61694  -0.61410  -0.61079  -0.59757  -0.58654
 Alpha  occ. eigenvalues --   -0.58483  -0.57767  -0.57629  -0.57359  -0.57321
 Alpha  occ. eigenvalues --   -0.56965  -0.56759  -0.56696  -0.56580  -0.55569
 Alpha  occ. eigenvalues --   -0.55414  -0.54800  -0.54690  -0.54570  -0.54229
 Alpha  occ. eigenvalues --   -0.53678  -0.53574  -0.53245  -0.53166  -0.52913
 Alpha  occ. eigenvalues --   -0.52589  -0.52229  -0.51990  -0.51628  -0.51538
 Alpha  occ. eigenvalues --   -0.51296  -0.51013  -0.50777  -0.50015  -0.49921
 Alpha  occ. eigenvalues --   -0.49836  -0.49157  -0.48939  -0.48693  -0.48644
 Alpha  occ. eigenvalues --   -0.48287  -0.48099  -0.47982  -0.47938  -0.47653
 Alpha  occ. eigenvalues --   -0.47265  -0.46804  -0.46615  -0.46459  -0.46385
 Alpha  occ. eigenvalues --   -0.46093  -0.45861  -0.45821  -0.45659  -0.45501
 Alpha  occ. eigenvalues --   -0.45472  -0.45385  -0.45175  -0.45063  -0.44869
 Alpha  occ. eigenvalues --   -0.44753  -0.44551  -0.44044  -0.43713  -0.43226
 Alpha  occ. eigenvalues --   -0.43177  -0.43015  -0.42250  -0.42045  -0.41952
 Alpha  occ. eigenvalues --   -0.41877  -0.41558  -0.41438  -0.41332  -0.40105
 Alpha  occ. eigenvalues --   -0.40041  -0.40007  -0.39697  -0.39295  -0.39230
 Alpha  occ. eigenvalues --   -0.38992  -0.38829  -0.38717  -0.38479  -0.38434
 Alpha  occ. eigenvalues --   -0.38247  -0.37930  -0.37755  -0.37204  -0.37069
 Alpha  occ. eigenvalues --   -0.37015  -0.35113  -0.34473  -0.33508  -0.33345
 Alpha  occ. eigenvalues --   -0.30579  -0.30176  -0.29927  -0.28719  -0.28177
 Alpha  occ. eigenvalues --   -0.27903  -0.27674  -0.27044  -0.26772
 Alpha virt. eigenvalues --   -0.05859  -0.00589   0.00898   0.01372   0.01442
 Alpha virt. eigenvalues --    0.02177   0.02339   0.02845   0.04254   0.04727
 Alpha virt. eigenvalues --    0.04899   0.05318   0.08413   0.09272   0.10206
 Alpha virt. eigenvalues --    0.10719   0.11885   0.12389   0.13117   0.13682
 Alpha virt. eigenvalues --    0.14091   0.14378   0.14578   0.14838   0.15124
 Alpha virt. eigenvalues --    0.15842   0.15978   0.16168   0.16347   0.16655
 Alpha virt. eigenvalues --    0.16961   0.17163   0.17313   0.17723   0.17970
 Alpha virt. eigenvalues --    0.18130   0.18434   0.18521   0.18848   0.18912
 Alpha virt. eigenvalues --    0.19204   0.19327   0.19628   0.19935   0.20029
 Alpha virt. eigenvalues --    0.20386   0.20525   0.20699   0.20965   0.21077
 Alpha virt. eigenvalues --    0.21297   0.21463   0.21744   0.21809   0.22131
 Alpha virt. eigenvalues --    0.22302   0.22454   0.22694   0.22872   0.23093
 Alpha virt. eigenvalues --    0.23483   0.23797   0.24076   0.24136   0.24259
 Alpha virt. eigenvalues --    0.24600   0.25011   0.25084   0.25294   0.25935
 Alpha virt. eigenvalues --    0.26473   0.26566   0.26880   0.27274   0.27508
 Alpha virt. eigenvalues --    0.27885   0.28061   0.28235   0.28766   0.28836
 Alpha virt. eigenvalues --    0.28965   0.29132   0.29347   0.29644   0.29984
 Alpha virt. eigenvalues --    0.30487   0.30758   0.30967   0.31204   0.31375
 Alpha virt. eigenvalues --    0.31601   0.31801   0.31971   0.32230   0.32555
 Alpha virt. eigenvalues --    0.32765   0.32842   0.33812   0.33837   0.34116
 Alpha virt. eigenvalues --    0.34868   0.35278   0.35781   0.36907   0.37238
 Alpha virt. eigenvalues --    0.37506   0.38336   0.38602   0.39028   0.39259
 Alpha virt. eigenvalues --    0.40105   0.40372   0.41040   0.41563   0.41815
 Alpha virt. eigenvalues --    0.41930   0.42070   0.42323   0.42755   0.43106
 Alpha virt. eigenvalues --    0.43321   0.43451   0.44016   0.44428   0.45219
 Alpha virt. eigenvalues --    0.45542   0.46412   0.46633   0.47631   0.48652
 Alpha virt. eigenvalues --    0.49695   0.50251   0.50734   0.50926   0.51868
 Alpha virt. eigenvalues --    0.52496   0.52710   0.53085   0.53572   0.53704
 Alpha virt. eigenvalues --    0.54177   0.54592   0.54819   0.55187   0.55395
 Alpha virt. eigenvalues --    0.55637   0.55851   0.56104   0.56306   0.56604
 Alpha virt. eigenvalues --    0.56684   0.56919   0.57215   0.57370   0.57600
 Alpha virt. eigenvalues --    0.57902   0.58341   0.58633   0.58931   0.59024
 Alpha virt. eigenvalues --    0.59406   0.59478   0.59654   0.59827   0.60100
 Alpha virt. eigenvalues --    0.60486   0.60624   0.60900   0.61092   0.61181
 Alpha virt. eigenvalues --    0.61386   0.61620   0.61830   0.62118   0.62250
 Alpha virt. eigenvalues --    0.62680   0.62714   0.62763   0.63026   0.63205
 Alpha virt. eigenvalues --    0.63458   0.63799   0.64222   0.64257   0.64693
 Alpha virt. eigenvalues --    0.64921   0.65172   0.65398   0.65598   0.65881
 Alpha virt. eigenvalues --    0.66099   0.66488   0.66767   0.66843   0.67187
 Alpha virt. eigenvalues --    0.67453   0.68030   0.68540   0.68673   0.68786
 Alpha virt. eigenvalues --    0.69078   0.69751   0.69976   0.70458   0.70924
 Alpha virt. eigenvalues --    0.71156   0.72089   0.72691   0.72909   0.73321
 Alpha virt. eigenvalues --    0.73748   0.73848   0.74054   0.74406   0.74666
 Alpha virt. eigenvalues --    0.74815   0.75206   0.75385   0.75975   0.76199
 Alpha virt. eigenvalues --    0.76585   0.77138   0.77278   0.77619   0.78027
 Alpha virt. eigenvalues --    0.78425   0.78745   0.78967   0.79283   0.79366
 Alpha virt. eigenvalues --    0.79431   0.80240   0.80761   0.81015   0.81177
 Alpha virt. eigenvalues --    0.81534   0.82167   0.82203   0.82526   0.82682
 Alpha virt. eigenvalues --    0.82881   0.83676   0.83728   0.84072   0.84206
 Alpha virt. eigenvalues --    0.84402   0.85010   0.85606   0.85790   0.85914
 Alpha virt. eigenvalues --    0.86315   0.86416   0.86776   0.87099   0.87286
 Alpha virt. eigenvalues --    0.87747   0.87956   0.88138   0.88218   0.88418
 Alpha virt. eigenvalues --    0.88680   0.88913   0.89148   0.89288   0.89635
 Alpha virt. eigenvalues --    0.89665   0.89751   0.90469   0.90631   0.91084
 Alpha virt. eigenvalues --    0.91346   0.92002   0.92040   0.92449   0.92647
 Alpha virt. eigenvalues --    0.92796   0.92890   0.93317   0.93738   0.94013
 Alpha virt. eigenvalues --    0.94387   0.94452   0.94773   0.95169   0.95369
 Alpha virt. eigenvalues --    0.95737   0.96021   0.96168   0.96209   0.96700
 Alpha virt. eigenvalues --    0.96987   0.97093   0.97367   0.97717   0.97845
 Alpha virt. eigenvalues --    0.97999   0.98159   0.98375   0.98831   0.99147
 Alpha virt. eigenvalues --    0.99338   0.99601   1.00194   1.00469   1.00842
 Alpha virt. eigenvalues --    1.01487   1.01616   1.01915   1.02323   1.02503
 Alpha virt. eigenvalues --    1.02824   1.03040   1.03412   1.03966   1.04208
 Alpha virt. eigenvalues --    1.04730   1.05193   1.05389   1.05455   1.05860
 Alpha virt. eigenvalues --    1.06674   1.06708   1.06918   1.07496   1.07754
 Alpha virt. eigenvalues --    1.08009   1.08916   1.09303   1.09519   1.09729
 Alpha virt. eigenvalues --    1.09932   1.10120   1.10704   1.10916   1.11407
 Alpha virt. eigenvalues --    1.11846   1.11926   1.12519   1.12883   1.13447
 Alpha virt. eigenvalues --    1.13701   1.13877   1.14249   1.14879   1.15060
 Alpha virt. eigenvalues --    1.15555   1.16111   1.16318   1.16504   1.16942
 Alpha virt. eigenvalues --    1.17254   1.17827   1.18155   1.18629   1.19000
 Alpha virt. eigenvalues --    1.19178   1.19837   1.20159   1.20566   1.20770
 Alpha virt. eigenvalues --    1.21177   1.21444   1.22174   1.22527   1.23023
 Alpha virt. eigenvalues --    1.23488   1.23915   1.24355   1.24882   1.25148
 Alpha virt. eigenvalues --    1.25566   1.25838   1.26010   1.26201   1.26625
 Alpha virt. eigenvalues --    1.27086   1.27554   1.28572   1.28971   1.29292
 Alpha virt. eigenvalues --    1.29421   1.30175   1.30554   1.30585   1.31023
 Alpha virt. eigenvalues --    1.31282   1.31841   1.31980   1.32703   1.32978
 Alpha virt. eigenvalues --    1.33427   1.33909   1.34149   1.34356   1.35148
 Alpha virt. eigenvalues --    1.35296   1.36428   1.36866   1.37082   1.37383
 Alpha virt. eigenvalues --    1.37758   1.38306   1.38680   1.39148   1.39439
 Alpha virt. eigenvalues --    1.39608   1.39872   1.40035   1.40356   1.40822
 Alpha virt. eigenvalues --    1.41201   1.41696   1.41906   1.41982   1.42339
 Alpha virt. eigenvalues --    1.42585   1.42981   1.43578   1.43779   1.43873
 Alpha virt. eigenvalues --    1.44190   1.44420   1.44851   1.45253   1.45357
 Alpha virt. eigenvalues --    1.45765   1.45825   1.46057   1.46158   1.46621
 Alpha virt. eigenvalues --    1.46881   1.47473   1.47725   1.48422   1.48519
 Alpha virt. eigenvalues --    1.48862   1.49045   1.49781   1.50085   1.50492
 Alpha virt. eigenvalues --    1.50959   1.51510   1.51812   1.51915   1.52760
 Alpha virt. eigenvalues --    1.53729   1.54025   1.54723   1.55219   1.55728
 Alpha virt. eigenvalues --    1.56264   1.57126   1.57419   1.58492   1.58824
 Alpha virt. eigenvalues --    1.59633   1.60903   1.61839   1.62084   1.62850
 Alpha virt. eigenvalues --    1.63099   1.63813   1.64245   1.64363   1.64988
 Alpha virt. eigenvalues --    1.65358   1.66403   1.66839   1.67142   1.68616
 Alpha virt. eigenvalues --    1.68812   1.70164   1.70671   1.70996   1.71284
 Alpha virt. eigenvalues --    1.71653   1.71855   1.72597   1.73212   1.73602
 Alpha virt. eigenvalues --    1.74249   1.74393   1.74405   1.74580   1.75645
 Alpha virt. eigenvalues --    1.75802   1.76225   1.76585   1.76711   1.77121
 Alpha virt. eigenvalues --    1.77358   1.78169   1.78413   1.78554   1.79007
 Alpha virt. eigenvalues --    1.79392   1.79512   1.79770   1.79871   1.80214
 Alpha virt. eigenvalues --    1.80461   1.80694   1.81155   1.81484   1.81701
 Alpha virt. eigenvalues --    1.81875   1.82220   1.82448   1.82524   1.82889
 Alpha virt. eigenvalues --    1.83228   1.83563   1.83636   1.84122   1.84437
 Alpha virt. eigenvalues --    1.84906   1.85301   1.85330   1.85751   1.85905
 Alpha virt. eigenvalues --    1.86161   1.86342   1.86520   1.87011   1.87213
 Alpha virt. eigenvalues --    1.87315   1.87539   1.87681   1.87812   1.88039
 Alpha virt. eigenvalues --    1.88991   1.89269   1.89567   1.89903   1.90066
 Alpha virt. eigenvalues --    1.90292   1.90811   1.91111   1.91331   1.91648
 Alpha virt. eigenvalues --    1.92124   1.92653   1.92807   1.93147   1.93370
 Alpha virt. eigenvalues --    1.93660   1.93821   1.94424   1.94548   1.94627
 Alpha virt. eigenvalues --    1.94688   1.95222   1.96322   1.96593   1.96999
 Alpha virt. eigenvalues --    1.97291   1.97633   1.97793   1.98602   1.99095
 Alpha virt. eigenvalues --    1.99269   1.99461   1.99747   2.00468   2.00705
 Alpha virt. eigenvalues --    2.00770   2.01454   2.01546   2.02014   2.02324
 Alpha virt. eigenvalues --    2.02780   2.03551   2.03810   2.03927   2.04179
 Alpha virt. eigenvalues --    2.04383   2.04598   2.05148   2.05270   2.05361
 Alpha virt. eigenvalues --    2.05661   2.05950   2.06312   2.06794   2.06988
 Alpha virt. eigenvalues --    2.07110   2.07300   2.07425   2.07646   2.07764
 Alpha virt. eigenvalues --    2.08412   2.08545   2.08952   2.09349   2.09765
 Alpha virt. eigenvalues --    2.09970   2.10181   2.10988   2.11487   2.11542
 Alpha virt. eigenvalues --    2.11674   2.11827   2.11896   2.12143   2.12394
 Alpha virt. eigenvalues --    2.12591   2.12866   2.13154   2.13491   2.13602
 Alpha virt. eigenvalues --    2.13731   2.14428   2.14473   2.14679   2.14961
 Alpha virt. eigenvalues --    2.15059   2.15433   2.15849   2.16040   2.16296
 Alpha virt. eigenvalues --    2.16374   2.16951   2.17053   2.17527   2.17564
 Alpha virt. eigenvalues --    2.18083   2.18380   2.18543   2.18646   2.18753
 Alpha virt. eigenvalues --    2.18838   2.19374   2.19694   2.19870   2.20473
 Alpha virt. eigenvalues --    2.21128   2.21408   2.21836   2.22201   2.23068
 Alpha virt. eigenvalues --    2.23256   2.23743   2.24238   2.24654   2.24860
 Alpha virt. eigenvalues --    2.24998   2.25312   2.25584   2.25850   2.26006
 Alpha virt. eigenvalues --    2.26667   2.26958   2.27252   2.27755   2.28443
 Alpha virt. eigenvalues --    2.28795   2.29589   2.29755   2.30040   2.30901
 Alpha virt. eigenvalues --    2.31020   2.31133   2.31449   2.31659   2.32290
 Alpha virt. eigenvalues --    2.32594   2.32919   2.33733   2.34843   2.35077
 Alpha virt. eigenvalues --    2.35406   2.36026   2.36477   2.37080   2.37422
 Alpha virt. eigenvalues --    2.37884   2.38421   2.38573   2.38839   2.39545
 Alpha virt. eigenvalues --    2.39697   2.40294   2.40615   2.40910   2.40982
 Alpha virt. eigenvalues --    2.41459   2.41692   2.41993   2.42469   2.42535
 Alpha virt. eigenvalues --    2.42799   2.43338   2.43614   2.43747   2.43939
 Alpha virt. eigenvalues --    2.44391   2.45051   2.45207   2.45695   2.46208
 Alpha virt. eigenvalues --    2.46634   2.47006   2.47315   2.47359   2.48173
 Alpha virt. eigenvalues --    2.48345   2.48503   2.49178   2.49276   2.49938
 Alpha virt. eigenvalues --    2.50118   2.50996   2.51361   2.51766   2.51996
 Alpha virt. eigenvalues --    2.52725   2.52940   2.53724   2.53906   2.54652
 Alpha virt. eigenvalues --    2.54937   2.55455   2.55552   2.55898   2.56629
 Alpha virt. eigenvalues --    2.57060   2.57504   2.57891   2.58169   2.58919
 Alpha virt. eigenvalues --    2.59080   2.59305   2.59814   2.60035   2.60635
 Alpha virt. eigenvalues --    2.60957   2.61122   2.61545   2.62028   2.62117
 Alpha virt. eigenvalues --    2.63174   2.63305   2.63611   2.64043   2.64081
 Alpha virt. eigenvalues --    2.64433   2.65112   2.65286   2.65448   2.66049
 Alpha virt. eigenvalues --    2.66196   2.66593   2.66891   2.67177   2.68025
 Alpha virt. eigenvalues --    2.68242   2.68308   2.68381   2.68685   2.68979
 Alpha virt. eigenvalues --    2.69327   2.69634   2.69903   2.70757   2.70891
 Alpha virt. eigenvalues --    2.71470   2.71729   2.71867   2.72645   2.72787
 Alpha virt. eigenvalues --    2.73661   2.73991   2.74074   2.74493   2.75034
 Alpha virt. eigenvalues --    2.75182   2.75642   2.76315   2.76882   2.77293
 Alpha virt. eigenvalues --    2.77904   2.78457   2.78714   2.79220   2.79451
 Alpha virt. eigenvalues --    2.79680   2.80505   2.80782   2.80888   2.81162
 Alpha virt. eigenvalues --    2.81631   2.81889   2.81956   2.82076   2.82834
 Alpha virt. eigenvalues --    2.82984   2.83396   2.83481   2.83804   2.84418
 Alpha virt. eigenvalues --    2.85186   2.86272   2.86626   2.86933   2.87243
 Alpha virt. eigenvalues --    2.87588   2.88079   2.88153   2.88666   2.88881
 Alpha virt. eigenvalues --    2.89134   2.89392   2.89843   2.90012   2.90637
 Alpha virt. eigenvalues --    2.91214   2.91578   2.91956   2.92308   2.92944
 Alpha virt. eigenvalues --    2.93147   2.94152   2.94543   2.94828   2.95398
 Alpha virt. eigenvalues --    2.96439   2.97250   2.98233   2.98793   2.99469
 Alpha virt. eigenvalues --    3.00469   3.01660   3.01960   3.02257   3.02443
 Alpha virt. eigenvalues --    3.03383   3.03904   3.04729   3.04979   3.06995
 Alpha virt. eigenvalues --    3.08532   3.08760   3.09167   3.09288   3.09751
 Alpha virt. eigenvalues --    3.10306   3.10664   3.11897   3.12907   3.13135
 Alpha virt. eigenvalues --    3.14140   3.14829   3.17464   3.17658   3.18407
 Alpha virt. eigenvalues --    3.18598   3.18824   3.19054   3.20693   3.21061
 Alpha virt. eigenvalues --    3.21274   3.21548   3.22054   3.22577   3.24011
 Alpha virt. eigenvalues --    3.24385   3.24714   3.25566   3.26411   3.27006
 Alpha virt. eigenvalues --    3.27103   3.27764   3.27920   3.28356   3.29438
 Alpha virt. eigenvalues --    3.29591   3.30568   3.30825   3.31760   3.32056
 Alpha virt. eigenvalues --    3.33680   3.36121   3.36903   3.40494   3.40783
 Alpha virt. eigenvalues --    3.41861   3.42162   3.42835   3.44046   3.44280
 Alpha virt. eigenvalues --    3.44542   3.44678   3.45136   3.45195   3.45283
 Alpha virt. eigenvalues --    3.45764   3.46006   3.46306   3.46431   3.46921
 Alpha virt. eigenvalues --    3.47402   3.47885   3.48317   3.49420   3.50800
 Alpha virt. eigenvalues --    3.51121   3.51700   3.54666   3.59928   3.68256
 Alpha virt. eigenvalues --    3.68877   3.69213   3.71695   3.74045   3.74480
 Alpha virt. eigenvalues --    3.76089   3.87772   3.97418   4.07621   4.12545
 Alpha virt. eigenvalues --    4.13674   4.14858   4.15014   4.16964   4.17552
 Alpha virt. eigenvalues --    4.18022   4.20239   4.20797   4.21445   4.23950
 Alpha virt. eigenvalues --    4.24497   4.24883   4.25754   4.26677   4.26979
 Alpha virt. eigenvalues --    4.27957   4.29676   4.32048   4.35212   4.35582
 Alpha virt. eigenvalues --    4.37859   4.38843   4.39453   4.40906   4.41667
 Alpha virt. eigenvalues --    4.42299   4.44008   4.44642   4.45607   4.46822
 Alpha virt. eigenvalues --    4.47647   4.48876   4.50212   4.52011   4.52514
 Alpha virt. eigenvalues --    4.54918   4.55583   4.58205   4.59630   4.60660
 Alpha virt. eigenvalues --    4.62309   4.63091   4.63199   4.64196   4.66006
 Alpha virt. eigenvalues --    4.67154   4.72800   4.73178   4.83282   4.85402
 Alpha virt. eigenvalues --    4.86451   4.87443   4.88077   4.90134   4.92470
 Alpha virt. eigenvalues --    4.96266   4.99313   5.24352   5.34392   5.79101
          Condensed to atoms (all electrons):
 Mulliken charges:
               1
     1  O   -0.593429
     2  N   -0.608145
     3  O   -0.517612
     4  O   -0.517633
     5  C   -0.329501
     6  N    0.401610
     7  C    0.204502
     8  C    0.649023
     9  C    0.006011
    10  C   -0.109497
    11  C    0.605048
    12  C   -0.144805
    13  C   -0.115122
    14  C   -0.155203
    15  C    0.327287
    16  O   -0.387235
    17  O   -0.391774
    18  H    0.385124
    19  H    0.291852
    20  H    0.363646
    21  H    0.138376
    22  H    0.120311
    23  H    0.164249
    24  H    0.174179
    25  H    0.181728
    26  H    0.144223
    27  H    0.481755
    28  O   -0.613174
    29  O   -0.618738
    30  C   -0.408693
    31  O   -0.622651
    32  C   -0.411718
    33  C   -0.379493
    34  O   -0.685935
    35  C   -0.384224
    36  C   -0.410846
    37  C   -0.397028
    38  C   -0.206605
    39  C    0.136562
    40  C   -0.146801
    41  C   -0.192570
    42  C    0.102383
    43  C    0.139329
    44  C   -0.062070
    45  C    0.206961
    46  C   -0.148312
    47  C    0.104333
    48  C   -0.211638
    49  C    0.111919
    50  C    0.028714
    51  C   -0.147949
    52  C   -0.003016
    53  C    0.213595
    54  C   -0.266018
    55  C    0.004259
    56  C   -0.146363
    57  C   -0.067485
    58  C    0.026040
    59  C   -0.226059
    60  C   -0.147706
    61  C    0.102492
    62  C   -0.177561
    63  C    0.122961
    64  C    0.103022
    65  C   -0.212067
    66  C   -0.266591
    67  P    1.331284
    68  H    0.133876
    69  H    0.127421
    70  H    0.141444
    71  H    0.165835
    72  H    0.122470
    73  H    0.131177
    74  H    0.150909
    75  H    0.101868
    76  H    0.109410
    77  H    0.121040
    78  H    0.153414
    79  H    0.133916
    80  H    0.137240
    81  H    0.160907
    82  H    0.119247
    83  H    0.126117
    84  H    0.159137
    85  H    0.119585
    86  H    0.097264
    87  H    0.121434
    88  H    0.101405
    89  H    0.138328
    90  H    0.116473
    91  H    0.127731
    92  H    0.138990
    93  H    0.134741
    94  H    0.122745
    95  H    0.087484
    96  H    0.129767
    97  H    0.074315
    98  H    0.116476
    99  H    0.138945
   100  H    0.138514
   101  H    0.134809
   102  O   -0.553984
   103  C   -0.003955
   104  H    0.150890
   105  H    0.162815
   106  C    0.514669
   107  C    0.803212
   108  F   -0.275108
   109  F   -0.288131
   110  F   -0.267682
   111  F   -0.263062
   112  F   -0.255608
 Sum of Mulliken charges =  -0.00000
 Mulliken charges with hydrogens summed into heavy atoms:
               1
     1  O   -0.111674
     2  N   -0.316294
     3  O   -0.153966
     4  O   -0.517633
     5  C    0.093435
     6  N    0.401610
     7  C    0.204502
     8  C    0.649023
     9  C    0.006011
    10  C   -0.109497
    11  C    0.605048
    12  C    0.029374
    13  C    0.066606
    14  C   -0.010981
    15  C    0.327287
    16  O   -0.387235
    17  O   -0.391774
    28  O   -0.228050
    29  O   -0.618738
    30  C   -0.005952
    31  O   -0.622651
    32  C    0.007765
    33  C   -0.017307
    34  O   -0.685935
    35  C    0.024146
    36  C    0.006548
    37  C    0.007811
    38  C   -0.109340
    39  C    0.136562
    40  C   -0.025367
    41  C   -0.091165
    42  C    0.102383
    43  C    0.139329
    44  C   -0.062070
    45  C    0.206961
    46  C   -0.148312
    47  C    0.104333
    48  C    0.043163
    49  C    0.111919
    50  C    0.028714
    51  C   -0.020218
    52  C   -0.003016
    53  C    0.213595
    54  C    0.007712
    55  C    0.004259
    56  C   -0.023618
    57  C   -0.067485
    58  C    0.026040
    59  C   -0.138575
    60  C   -0.017939
    61  C    0.102492
    62  C   -0.103246
    63  C    0.122961
    64  C    0.103022
    65  C    0.043354
    66  C    0.006732
    67  P    1.331284
   102  O   -0.553984
   103  C    0.309751
   106  C    0.514669
   107  C    0.803212
   108  F   -0.275108
   109  F   -0.288131
   110  F   -0.267682
   111  F   -0.263062
   112  F   -0.255608
 APT charges:
               1
     1  O    0.013085
     2  N   -0.915926
     3  O   -0.808204
     4  O   -0.792515
     5  C   -1.168430
     6  N   -1.087968
     7  C    1.001017
     8  C    0.003204
     9  C   -0.837227
    10  C   -0.286837
    11  C    0.516607
    12  C   -0.500541
    13  C   -0.400754
    14  C   -0.593826
    15  C    0.169595
    16  O    0.341143
    17  O    0.466463
    18  H    0.285396
    19  H    0.850610
    20  H    1.024354
    21  H    0.388235
    22  H    0.656537
    23  H    0.115981
    24  H   -0.071690
    25  H    1.198395
    26  H    0.417647
    27  H    0.307400
    28  O   -0.926262
    29  O   -0.262143
    30  C   -1.377121
    31  O   -0.248962
    32  C   -1.034479
    33  C   -1.371966
    34  O   -0.176625
    35  C   -0.893814
    36  C   -1.431730
    37  C   -1.297828
    38  C   -0.500750
    39  C   -0.522172
    40  C   -0.404524
    41  C   -0.474467
    42  C    0.094856
    43  C    0.229400
    44  C   -0.272460
    45  C   -0.688135
    46  C   -0.028183
    47  C   -0.312219
    48  C   -0.910182
    49  C    0.130223
    50  C    0.584101
    51  C   -0.380892
    52  C   -0.557624
    53  C   -0.180716
    54  C   -1.531586
    55  C   -0.659675
    56  C   -0.510073
    57  C   -0.285413
    58  C    0.568060
    59  C   -0.459972
    60  C   -0.488654
    61  C    0.171820
    62  C   -0.528942
    63  C   -0.355770
    64  C    0.157212
    65  C   -0.856877
    66  C   -2.045373
    67  P    0.625394
    68  H    0.776234
    69  H    0.897757
    70  H   -0.209902
    71  H   -0.276207
    72  H    0.586044
    73  H    0.803414
    74  H    0.730847
    75  H    0.086526
    76  H    0.625994
    77  H    0.598737
    78  H    0.196704
    79  H    0.176522
    80  H    0.564961
    81  H    0.190753
    82  H    0.789787
    83  H    1.082732
    84  H   -0.102321
    85  H    0.415056
    86  H    0.713343
    87  H    1.475320
    88  H    0.379665
    89  H   -0.122992
    90  H    1.103881
    91  H    1.002568
    92  H    0.468848
    93  H    1.020269
    94  H    0.892310
    95  H    0.785113
    96  H    0.428600
    97  H    0.221091
    98  H    0.803835
    99  H    0.064845
   100  H    0.969596
   101  H    0.916690
   102  O   -0.237704
   103  C   -0.481153
   104  H   -0.259164
   105  H    0.754850
   106  C   -0.290226
   107  C   -0.255156
   108  F    0.353510
   109  F   -0.435872
   110  F   -0.545065
   111  F    0.447186
   112  F    1.014945
 Sum of APT charges =  -0.00000
 APT charges with hydrogens summed into heavy atoms:
               1
     1  O    0.320484
     2  N   -0.065316
     3  O    0.216151
     4  O   -0.792515
     5  C   -0.007678
     6  N   -1.087968
     7  C    1.001017
     8  C    0.003204
     9  C   -0.837227
    10  C   -0.286837
    11  C    0.516607
    12  C   -0.572231
    13  C    0.797641
    14  C   -0.176179
    15  C    0.169595
    16  O    0.341143
    17  O    0.466463
    28  O   -0.640866
    29  O   -0.262143
    30  C    0.086968
    31  O   -0.248962
    32  C    0.078771
    33  C    0.071401
    34  O   -0.176625
    35  C    0.078150
    36  C    0.113771
    37  C    0.097639
    38  C    0.212593
    39  C   -0.522172
    40  C    1.070795
    41  C   -0.094802
    42  C    0.094856
    43  C    0.229400
    44  C   -0.272460
    45  C   -0.688135
    46  C   -0.028183
    47  C   -0.312219
    48  C    0.070707
    49  C    0.130223
    50  C    0.584101
    51  C    0.621676
    52  C   -0.557624
    53  C   -0.180716
    54  C   -0.042469
    55  C   -0.659675
    56  C    0.382237
    57  C   -0.285413
    58  C    0.568060
    59  C    0.325141
    60  C   -0.060054
    61  C    0.171820
    62  C   -0.307851
    63  C   -0.355770
    64  C    0.157212
    65  C    0.011803
    66  C   -0.159087
    67  P    0.625394
   102  O   -0.237704
   103  C    0.014533
   106  C   -0.290226
   107  C   -0.255156
   108  F    0.353510
   109  F   -0.435872
   110  F   -0.545065
   111  F    0.447186
   112  F    1.014945
 Electronic spatial extent (au):  <R**2>=          60888.8987
 Charge=             -0.0000 electrons
 Dipole moment (field-independent basis, Debye):
    X=             -6.7617    Y=              1.5366    Z=              1.5946  Tot=              7.1151
 Quadrupole moment (field-independent basis, Debye-Ang):
   XX=           -419.6550   YY=           -358.7461   ZZ=           -370.6827
   XY=             25.4440   XZ=             -4.5891   YZ=             10.9174
 Traceless Quadrupole moment (field-independent basis, Debye-Ang):
   XX=            -36.6270   YY=             24.2818   ZZ=             12.3452
   XY=             25.4440   XZ=             -4.5891   YZ=             10.9174
 Octapole moment (field-independent basis, Debye-Ang**2):
  XXX=           -515.2233  YYY=            -22.4986  ZZZ=             20.1224  XYY=             57.8508
  XXY=            -46.1898  XXZ=           -118.3905  XZZ=             87.4486  YZZ=             28.8797
  YYZ=            -17.9057  XYZ=            -38.3872
 Hexadecapole moment (field-independent basis, Debye-Ang**3):
 XXXX=         -56893.5456 YYYY=         -13535.5732 ZZZZ=          -9659.2994 XXXY=             93.1662
 XXXZ=          -1309.4853 YYYX=           -107.4265 YYYZ=            444.0079 ZZZX=           -870.0213
 ZZZY=            387.2288 XXYY=         -11041.3584 XXZZ=         -10894.8963 YYZZ=          -4026.0678
 XXYZ=            -42.3560 YYXZ=           -122.4949 ZZXY=            -93.6556
 N-N= 1.125925198731D+04 E-N=-3.084340191317D+04  KE= 3.530898312777D+03
  Exact polarizability:       0.000       0.000       0.000       0.000       0.000       0.000
 Approx polarizability:     760.044      29.103     692.941      -5.155     101.195     637.197
 Calling FoFJK, ICntrl=    100127 FMM=F ISym2X=0 I1Cent= 0 IOpClX= 0 NMat=1 NMatS=1 NMatT=0.
 -------------------------------------------------------------------
 Center     Atomic                   Forces (Hartrees/Bohr)
 Number     Number              X              Y              Z
 -------------------------------------------------------------------
      1        8          -0.000000353    0.000001303    0.000002732
      2        7           0.000003715    0.000002440    0.000005130
      3        8          -0.000007269    0.000000174    0.000000181
      4        8           0.000001723   -0.000000352   -0.000000329
      5        6           0.000007015   -0.000001902   -0.000006807
      6        7           0.000007183    0.000011999    0.000014558
      7        6          -0.000001501   -0.000000452    0.000001431
      8        6           0.000008741    0.000002064   -0.000003134
      9        6           0.000001802    0.000002545    0.000000759
     10        6          -0.000003488    0.000000034    0.000002120
     11        6          -0.000003421   -0.000000090   -0.000002148
     12        6          -0.000003780    0.000000532   -0.000000643
     13        6          -0.000005905   -0.000002041   -0.000004474
     14        6           0.000003498   -0.000005685   -0.000003889
     15        6          -0.000000667   -0.000005953   -0.000003964
     16        8           0.000001894   -0.000002419   -0.000001388
     17        8          -0.000005285   -0.000005794   -0.000012655
     18        1           0.000000058   -0.000000658   -0.000000343
     19        1          -0.000001775    0.000000065   -0.000004235
     20        1           0.000002988    0.000001997   -0.000003089
     21        1          -0.000003474    0.000000272   -0.000000933
     22        1          -0.000000980   -0.000001538   -0.000001529
     23        1          -0.000002288    0.000002716    0.000004199
     24        1           0.000001846    0.000001259    0.000001917
     25        1           0.000002487    0.000004315    0.000002301
     26        1          -0.000001172    0.000003396    0.000000695
     27        1          -0.000001442   -0.000000307   -0.000001303
     28        8          -0.000002654    0.000000661   -0.000000172
     29        8          -0.000004002   -0.000000680   -0.000000354
     30        6          -0.000000247   -0.000002785   -0.000007389
     31        8          -0.000000462   -0.000000138    0.000001191
     32        6          -0.000003174   -0.000001801    0.000005265
     33        6          -0.000005124   -0.000000426    0.000009164
     34        8          -0.000000315    0.000000464   -0.000002324
     35        6           0.000002342    0.000000585    0.000006691
     36        6           0.000002982   -0.000004409   -0.000001823
     37        6           0.000004505    0.000003210   -0.000000975
     38        6           0.000001634    0.000003609   -0.000001628
     39        6          -0.000006276   -0.000001670    0.000000474
     40        6           0.000001849   -0.000001406   -0.000000300
     41        6           0.000002486    0.000001803   -0.000002133
     42        6           0.000000458    0.000004057    0.000002092
     43        6           0.000000615    0.000001471    0.000002164
     44        6          -0.000001037    0.000004602    0.000004226
     45        6           0.000006280   -0.000000129    0.000000865
     46        6           0.000002398   -0.000004134    0.000003254
     47        6          -0.000002039   -0.000008807   -0.000003467
     48        6          -0.000002372    0.000000392   -0.000001549
     49        6          -0.000002936   -0.000007387   -0.000003482
     50        6           0.000001991   -0.000001229    0.000001594
     51        6           0.000004312   -0.000003006   -0.000000235
     52        6           0.000000684   -0.000005221   -0.000001478
     53        6           0.000000491    0.000002476    0.000000135
     54        6           0.000000757   -0.000000142    0.000002557
     55        6          -0.000001416    0.000000576   -0.000002804
     56        6           0.000006406    0.000004115    0.000008439
     57        6           0.000001581    0.000001668    0.000001864
     58        6          -0.000005516   -0.000000565   -0.000002795
     59        6          -0.000000478   -0.000000096    0.000000056
     60        6          -0.000001974    0.000002691    0.000000554
     61        6          -0.000000644    0.000004110    0.000004980
     62        6           0.000003724    0.000001743   -0.000001533
     63        6          -0.000001173   -0.000001651   -0.000004022
     64        6           0.000001060    0.000001590    0.000000582
     65        6          -0.000002938    0.000004923   -0.000003265
     66        6           0.000002465   -0.000000767   -0.000002682
     67       15           0.000002582   -0.000001107    0.000000538
     68        1          -0.000000414   -0.000002111    0.000001664
     69        1          -0.000001055    0.000000272   -0.000001149
     70        1           0.000001301   -0.000000760   -0.000001146
     71        1           0.000000904   -0.000000951   -0.000000148
     72        1           0.000002882   -0.000000108   -0.000004775
     73        1          -0.000000826   -0.000001554   -0.000000427
     74        1          -0.000001675    0.000003367   -0.000001106
     75        1           0.000002520    0.000003793   -0.000003192
     76        1           0.000002047   -0.000000615   -0.000004124
     77        1          -0.000000280   -0.000001105    0.000001272
     78        1          -0.000003574   -0.000000310   -0.000002168
     79        1           0.000001192    0.000001377    0.000000567
     80        1          -0.000000055    0.000003576    0.000001770
     81        1          -0.000002525    0.000002923   -0.000000148
     82        1          -0.000000291    0.000002406    0.000001421
     83        1          -0.000001872    0.000000133   -0.000001547
     84        1          -0.000000464   -0.000002139    0.000000226
     85        1          -0.000001183   -0.000000625   -0.000002680
     86        1           0.000000406   -0.000002497   -0.000003474
     87        1          -0.000002091   -0.000000525    0.000000126
     88        1          -0.000000009   -0.000001421   -0.000001214
     89        1           0.000000853   -0.000001148    0.000001058
     90        1           0.000000536   -0.000000747    0.000001978
     91        1          -0.000001634    0.000000992   -0.000001161
     92        1          -0.000000553   -0.000001272    0.000002572
     93        1           0.000001072   -0.000000545    0.000000789
     94        1           0.000000194   -0.000003117    0.000000267
     95        1          -0.000000230    0.000001121   -0.000001019
     96        1          -0.000000918    0.000000106    0.000001128
     97        1          -0.000002318   -0.000000253    0.000001432
     98        1           0.000000625   -0.000001673    0.000001725
     99        1           0.000000590   -0.000000010    0.000001682
    100        1          -0.000001037    0.000000386    0.000001731
    101        1           0.000001117    0.000000496    0.000002803
    102        8           0.000001089    0.000003382    0.000001932
    103        6           0.000000667    0.000002961    0.000000083
    104        1          -0.000000123   -0.000001417   -0.000000801
    105        1          -0.000001041   -0.000003099    0.000000371
    106        6          -0.000003138   -0.000004413    0.000007968
    107        6          -0.000003766    0.000002384   -0.000005186
    108        9          -0.000002271    0.000001704   -0.000001340
    109        9           0.000001671    0.000001773    0.000000282
    110        9           0.000001955   -0.000001180    0.000003443
    111        9           0.000001340    0.000000580    0.000000336
    112        9           0.000003405   -0.000005246    0.000000749
 -------------------------------------------------------------------
 Cartesian Forces:  Max     0.000014558 RMS     0.000003018
 IRC-IRC-IRC-IRC-IRC-IRC-IRC-IRC-IRC-IRC-IRC-IRC-IRC-IRC-IRC-IRC-IRC-IRC
          ******** Start new reaction path calculation ********
 Supplied step size of   0.0500 bohr.
    Integration on MW PES will use step size of   0.0554 sqrt(amu)*bohr.
 Point Number:   0          Path Number:   1
 Calculating another point on the path.
 IRC-IRC-IRC-IRC-IRC-IRC-IRC-IRC-IRC-IRC-IRC-IRC-IRC-IRC-IRC-IRC-IRC-IRC
 Symmetry turned off by external request.
 Stoichiometry    C48H46F5N2O10P
 Framework group  C1[X(C48H46F5N2O10P)]
 Deg. of freedom   330
 Full point group                 C1      NOp   1
                          Input orientation:                          
 ---------------------------------------------------------------------
 Center     Atomic      Atomic             Coordinates (Angstroms)
 Number     Number       Type             X           Y           Z
 ---------------------------------------------------------------------
      1          8           0       -2.285618    2.386352    2.688583
      2          7           0        1.059756    2.293142    1.348980
      3          8           0       -0.271540    2.310998    3.579094
      4          8           0        1.398186    0.972111   -0.464537
      5          6           0       -0.931173    3.119426    0.085133
      6          7           0        7.499706    1.515064    1.473668
      7          6           0        6.054655    1.517921    1.218101
      8          6           0       -1.024945    2.337304    2.482523
      9          6           0        3.321388    1.626029    0.774403
     10          6           0       -0.376242    2.274166    1.231121
     11          6           0        1.839198    1.596019    0.487879
     12          6           0        4.080660    0.599757    0.216852
     13          6           0        5.309176    2.542867    1.786562
     14          6           0        3.942615    2.606317    1.553748
     15          6           0        5.452790    0.529140    0.429783
     16          8           0        8.227943    1.042620    0.621278
     17          8           0        7.874603    2.011431    2.519468
     18          1           0       -0.878326    0.990567    0.721600
     19          1           0        1.462094    2.623528    2.214150
     20          1           0       -0.856051    2.145335    4.334916
     21          1           0       -2.023466    3.105211    0.067077
     22          1           0       -0.594290    4.158034    0.173137
     23          1           0       -0.575876    2.709822   -0.863376
     24          1           0        3.591089   -0.160547   -0.383601
     25          1           0        5.820122    3.278472    2.395991
     26          1           0        3.376808    3.438687    1.958335
     27          1           0       -2.917732    2.012183    1.852466
     28          8           0       -1.474126    0.148139    0.160263
     29          8           0       -3.589925   -0.151195   -1.123096
     30          6           0       -2.197122    5.723221   -2.721071
     31          8           0       -3.503357   -1.041507    1.251610
     32          6           0       -3.768536    1.099134   -3.906715
     33          6           0        1.848614    0.203510    4.440138
     34          8           0       -3.592762    1.422324    0.928914
     35          6           0        0.623427   -2.152371    0.189805
     36          6           0       -2.658425   -2.037781    4.074776
     37          6           0       -5.736689    3.541910    0.105781
     38          6           0       -3.996188    4.563660   -1.379607
     39          6           0       -5.737796   -1.202182   -0.899267
     40          6           0       -7.752740    0.103251   -1.219370
     41          6           0       -3.060751    3.414742   -3.255553
     42          6           0       -3.107612    4.552654   -2.452401
     43          6           0       -3.991962   -3.019929   -0.002749
     44          6           0       -4.734224    2.325380   -1.898037
     45          6           0       -4.983037   -0.084880   -1.221002
     46          6           0       -5.334330   -2.637353   -0.603763
     47          6           0       -3.857509    2.300046   -2.998259
     48          6           0       -5.304941   -3.492506   -1.904225
     49          6           0       -4.812216    3.470438   -1.085065
     50          6           0       -7.130876   -1.082126   -0.852073
     51          6           0       -6.970623    1.190189   -1.605623
     52          6           0       -1.960553   -2.894573    1.336233
     53          6           0       -3.156279   -2.335696    0.868238
     54          6           0       -4.578295   -4.786695   -1.497341
     55          6           0       -5.573620    1.131975   -1.585342
     56          6           0       -2.454773   -4.891833    0.028581
     57          6           0       -0.998252   -2.104670    2.158740
     58          6           0       -3.609577   -4.288110   -0.450525
     59          6           0       -0.405406   -0.922851    4.177793
     60          6           0       -1.648107   -4.194629    0.923783
     61          6           0       -1.330535   -1.681400    3.454996
     62          6           0        1.140981   -1.010344    2.355758
     63          6           0        0.248176   -1.764291    1.598125
     64          6           0        0.836834   -0.581959    3.646835
     65          6           0       -6.530434   -3.081987    0.283944
     66          6           0       -7.746777   -2.358746   -0.325484
     67         15           0       -2.987347    0.175574    0.328165
     68          1           0       -2.082054    5.898015   -3.793943
     69          1           0       -2.580962    6.638152   -2.263814
     70          1           0       -1.198238    5.539082   -2.310699
     71          1           0       -3.178900    0.303015   -3.442023
     72          1           0       -3.289834    1.368437   -4.850590
     73          1           0       -4.759236    0.691811   -4.126560
     74          1           0        2.611725   -0.457526    4.863371
     75          1           0        2.364645    0.928970    3.802537
     76          1           0        1.382035    0.745443    5.266508
     77          1           0        0.985628   -3.184592    0.138841
     78          1           0       -0.233257   -2.059604   -0.480263
     79          1           0        1.404592   -1.487389   -0.182916
     80          1           0       -2.906317   -3.087920    3.897150
     81          1           0       -3.464263   -1.435011    3.644671
     82          1           0       -2.640447   -1.866831    5.153480
     83          1           0       -6.763391    3.775962   -0.194757
     84          1           0       -5.750506    2.595064    0.648295
     85          1           0       -5.407911    4.327600    0.790324
     86          1           0       -4.049650    5.444242   -0.742593
     87          1           0       -8.834697    0.191265   -1.191491
     88          1           0       -2.385001    3.391813   -4.107981
     89          1           0       -4.714252   -2.959533   -2.656779
     90          1           0       -6.305758   -3.658771   -2.312164
     91          1           0       -7.442669    2.122803   -1.899525
     92          1           0       -4.072142   -5.271932   -2.335945
     93          1           0       -5.275652   -5.518703   -1.071822
     94          1           0       -2.165499   -5.881202   -0.312629
     95          1           0       -0.658595   -0.610853    5.190254
     96          1           0       -0.728027   -4.640863    1.289196
     97          1           0        2.105519   -0.750117    1.922619
     98          1           0       -6.638388   -4.169703    0.317947
     99          1           0       -6.359202   -2.722995    1.304139
    100          1           0       -8.536332   -2.166766    0.405860
    101          1           0       -8.194041   -2.945261   -1.137141
    102          8           0        6.154072   -0.533727   -0.056288
    103          6           0        6.629706   -0.361536   -1.378863
    104          1           0        5.803711   -0.366270   -2.099664
    105          1           0        7.212296    0.559385   -1.469656
    106          6           0        7.536737   -1.541760   -1.653268
    107          6           0        8.135067   -1.504755   -3.062715
    108          9           0        8.559558   -1.567040   -0.779682
    109          9           0        6.850117   -2.699561   -1.541382
    110          9           0        7.155097   -1.512949   -3.971542
    111          9           0        8.849998   -0.389719   -3.226382
    112          9           0        8.919688   -2.554509   -3.267652
 ---------------------------------------------------------------------
 Rotational constants (GHZ):           0.0544227           0.0186658           0.0177952
 Standard basis: 6-31G(d,p) (6D, 7F)
  1224 basis functions,  2194 primitive gaussians,  1224 cartesian basis functions
   244 alpha electrons      244 beta electrons
       nuclear repulsion energy     11259.2614820365 Hartrees.
 NAtoms=  112 NActive=  112 NUniq=  112 SFac= 1.00D+00 NAtFMM=   60 NAOKFM=T Big=T
 Integral buffers will be    131072 words long.
 Raffenetti 2 integral format.
 Two-electron integral symmetry is turned off.
 One-electron integrals computed using PRISM.
 NBasis=  1224 RedAO= T EigKep=  2.36D-04  NBF=  1224
 NBsUse=  1224 1.00D-06 EigRej= -1.00D+00 NBFU=  1224
 Initial guess from the checkpoint file:  "N1_R_PA1_ts2_f9.chk"
 B after Tr=    -0.245850    0.042683    0.039787
         Rot=    1.000000   -0.000000   -0.000000   -0.000000 Ang=  -0.00 deg.
 ExpMin= 9.98D-02 ExpMax= 1.94D+04 ExpMxC= 2.91D+03 IAcc=3 IRadAn=         5 AccDes= 0.00D+00
 Harris functional with IExCor= 1009 and IRadAn=       5 diagonalized for initial guess.
 HarFok:  IExCor= 1009 AccDes= 0.00D+00 IRadAn=         5 IDoV= 1 UseB2=F ITyADJ=14
 ICtDFT=  3500011 ScaDFX=  1.000000  1.000000  1.000000  1.000000
 FoFCou: FMM=F IPFlag=           0 FMFlag=      100000 FMFlg1=        2001
         NFxFlg=           0 DoJE=T BraDBF=F KetDBF=T FulRan=T
         wScrn=  0.000000 ICntrl=       500 IOpCl=  0 I1Cent=   200000004 NGrid=           0
         NMat0=    1 NMatS0=      1 NMatT0=    0 NMatD0=    1 NMtDS0=    0 NMtDT0=    0
 Symmetry not used in FoFCou.
 Requested convergence on RMS density matrix=1.00D-08 within 128 cycles.
 Requested convergence on MAX density matrix=1.00D-06.
 Requested convergence on             energy=1.00D-06.
 No special actions if energy rises.
 Integral accuracy reduced to 1.0D-05 until final iterations.
 Initial convergence to 1.0D-05 achieved.  Increase integral accuracy.
 SCF Done:  E(RM062X) =  -3557.94698154     A.U. after   11 cycles
            NFock= 11  Conv=0.68D-08     -V/T= 2.0077
 DoSCS=F DFT=T ScalE2(SS,OS)=  1.000000  1.000000
 Range of M.O.s used for correlation:     1  1224
 NBasis=  1224 NAE=   244 NBE=   244 NFC=     0 NFV=     0
 NROrb=   1224 NOA=   244 NOB=   244 NVA=   980 NVB=   980
 Symmetrizing basis deriv contribution to polar:
 IMax=3 JMax=2 DiffMx= 0.00D+00
 Calling FoFJK, ICntrl=      2127 FMM=T ISym2X=0 I1Cent= 0 IOpClX= 0 NMat=1 NMatS=1 NMatT=0.
 -------------------------------------------------------------------
 Center     Atomic                   Forces (Hartrees/Bohr)
 Number     Number              X              Y              Z
 -------------------------------------------------------------------
      1        8          -0.001005728    0.000484013    0.000720488
      2        7          -0.000033625   -0.000128883   -0.000006088
      3        8           0.000100042   -0.000122095    0.000488088
      4        8          -0.000092696   -0.000132778   -0.000084107
      5        6           0.000017133   -0.000717765   -0.000111888
      6        7          -0.000010826    0.000014525    0.000013026
      7        6           0.000009033   -0.000001529    0.000004047
      8        6           0.001497962   -0.000401481   -0.001764633
      9        6          -0.000038631    0.000026036   -0.000022045
     10        6           0.000248956    0.002640902    0.001858563
     11        6          -0.000100844    0.000131018    0.000144929
     12        6          -0.000000148    0.000007177    0.000003952
     13        6          -0.000010063   -0.000008368   -0.000000005
     14        6           0.000012172    0.000000777   -0.000005681
     15        6          -0.000011099    0.000005052    0.000001814
     16        8           0.000011735   -0.000005492   -0.000002804
     17        8           0.000003314   -0.000007808   -0.000014828
     18        1          -0.001113400   -0.001960504   -0.001109682
     19        1           0.000018566   -0.000011315   -0.000004353
     20        1          -0.000033222   -0.000115925   -0.000058037
     21        1          -0.000006256    0.000019562    0.000006846
     22        1           0.000014006   -0.000050444   -0.000036628
     23        1          -0.000032174    0.000014602   -0.000056110
     24        1           0.000003163    0.000004780   -0.000001514
     25        1           0.000001720    0.000004278    0.000002475
     26        1          -0.000003509    0.000001740   -0.000001817
     27        1           0.000513864    0.000500597    0.000716160
     28        8           0.001426978    0.000105345   -0.000264718
     29        8           0.000809857   -0.000259532    0.000010002
     30        6          -0.000001241   -0.000005411   -0.000007950
     31        8           0.000549065    0.000071756   -0.000220572
     32        6          -0.000007435   -0.000002475   -0.000000464
     33        6          -0.000009624   -0.000004385    0.000007104
     34        8           0.000214043   -0.000861662   -0.000971057
     35        6           0.000030157   -0.000005741    0.000000712
     36        6          -0.000000157   -0.000010492   -0.000005862
     37        6           0.000008824   -0.000001839    0.000002582
     38        6          -0.000007151   -0.000002081   -0.000009846
     39        6           0.000044274   -0.000009504    0.000019440
     40        6           0.000019844   -0.000005146    0.000001277
     41        6           0.000003082   -0.000000373   -0.000005193
     42        6           0.000000352    0.000005709    0.000001596
     43        6          -0.000026044   -0.000002834   -0.000009090
     44        6           0.000010048    0.000026523   -0.000004524
     45        6          -0.000013456   -0.000005438    0.000027549
     46        6          -0.000008685   -0.000014213    0.000000708
     47        6           0.000000906   -0.000006265   -0.000000669
     48        6          -0.000000709    0.000000725   -0.000006578
     49        6          -0.000009244   -0.000001538    0.000005077
     50        6           0.000011083   -0.000000814   -0.000001120
     51        6           0.000032302   -0.000024323   -0.000003341
     52        6           0.000028597   -0.000028119    0.000018380
     53        6           0.000060893   -0.000190401   -0.000043311
     54        6          -0.000001632    0.000001222    0.000002026
     55        6           0.000071737    0.000015474    0.000009588
     56        6           0.000006965    0.000010109    0.000010697
     57        6           0.000001582    0.000011296    0.000003384
     58        6          -0.000012106   -0.000005629   -0.000008160
     59        6           0.000009401   -0.000034087   -0.000008344
     60        6           0.000005204   -0.000014303   -0.000007458
     61        6          -0.000003546    0.000026805    0.000029809
     62        6           0.000006372    0.000006957   -0.000001688
     63        6           0.000011179   -0.000020643    0.000017683
     64        6           0.000010528   -0.000002398    0.000008859
     65        6          -0.000005006    0.000003947    0.000003415
     66        6           0.000010241   -0.000001342   -0.000007570
     67       15          -0.003240813    0.001100589    0.000772214
     68        1          -0.000000687   -0.000003104    0.000001450
     69        1          -0.000001165   -0.000001007   -0.000000383
     70        1          -0.000001791   -0.000004412    0.000002524
     71        1           0.000002326   -0.000006666   -0.000012123
     72        1           0.000002762   -0.000000938   -0.000004734
     73        1          -0.000000102   -0.000002969   -0.000003824
     74        1          -0.000004265   -0.000003711   -0.000005527
     75        1          -0.000007183    0.000003465   -0.000005610
     76        1          -0.000002945    0.000001812   -0.000013921
     77        1           0.000001012   -0.000000608   -0.000003279
     78        1           0.000006375   -0.000036267   -0.000021071
     79        1          -0.000001545    0.000004471   -0.000003650
     80        1          -0.000000617    0.000002037    0.000004280
     81        1          -0.000003680    0.000008297    0.000009382
     82        1          -0.000000786    0.000004300   -0.000000794
     83        1          -0.000001816   -0.000000183   -0.000002302
     84        1           0.000006960   -0.000000678    0.000004462
     85        1           0.000001280   -0.000004779   -0.000002112
     86        1           0.000002955   -0.000006289   -0.000001338
     87        1          -0.000000347   -0.000000411    0.000001340
     88        1           0.000000003   -0.000001396   -0.000001247
     89        1          -0.000000192   -0.000002002   -0.000001115
     90        1           0.000000960   -0.000000194    0.000002838
     91        1           0.000005608    0.000000913   -0.000000434
     92        1          -0.000000355   -0.000000868    0.000003239
     93        1           0.000002384   -0.000000246    0.000001853
[...]
 Alpha virt. eigenvalues --    1.27576   1.27974   1.28714   1.29019   1.29095
 Alpha virt. eigenvalues --    1.29326   1.29949   1.30176   1.30481   1.31194
 Alpha virt. eigenvalues --    1.31488   1.31672   1.31931   1.32192   1.33141
 Alpha virt. eigenvalues --    1.33352   1.33918   1.34399   1.34781   1.35387
 Alpha virt. eigenvalues --    1.35667   1.36254   1.36784   1.37216   1.37581
 Alpha virt. eigenvalues --    1.37833   1.38347   1.39028   1.39213   1.39373
 Alpha virt. eigenvalues --    1.39851   1.40043   1.40219   1.40568   1.41053
 Alpha virt. eigenvalues --    1.41323   1.41685   1.41843   1.42117   1.42282
 Alpha virt. eigenvalues --    1.42530   1.43075   1.43552   1.43754   1.43939
 Alpha virt. eigenvalues --    1.44299   1.44433   1.45115   1.45147   1.45540
 Alpha virt. eigenvalues --    1.45704   1.45842   1.46198   1.46566   1.46630
 Alpha virt. eigenvalues --    1.47102   1.47609   1.47975   1.48348   1.48494
 Alpha virt. eigenvalues --    1.48892   1.49229   1.49732   1.50175   1.50281
 Alpha virt. eigenvalues --    1.50685   1.51539   1.51869   1.52121   1.52713
 Alpha virt. eigenvalues --    1.53893   1.54490   1.55240   1.55548   1.55648
 Alpha virt. eigenvalues --    1.55899   1.57220   1.57760   1.58359   1.58471
 Alpha virt. eigenvalues --    1.59940   1.60330   1.61385   1.61815   1.62454
 Alpha virt. eigenvalues --    1.62970   1.63914   1.64144   1.64459   1.65009
 Alpha virt. eigenvalues --    1.66097   1.66332   1.66630   1.67308   1.68065
 Alpha virt. eigenvalues --    1.69051   1.70041   1.70760   1.70935   1.71050
 Alpha virt. eigenvalues --    1.71438   1.71778   1.72615   1.73170   1.73760
 Alpha virt. eigenvalues --    1.74213   1.74568   1.74747   1.75257   1.75773
 Alpha virt. eigenvalues --    1.76092   1.76335   1.76740   1.76844   1.77540
 Alpha virt. eigenvalues --    1.77953   1.78312   1.78741   1.79088   1.79329
 Alpha virt. eigenvalues --    1.79565   1.79724   1.79948   1.80010   1.80514
 Alpha virt. eigenvalues --    1.80623   1.81035   1.81353   1.81565   1.81683
 Alpha virt. eigenvalues --    1.82175   1.82230   1.82495   1.82817   1.83030
 Alpha virt. eigenvalues --    1.83445   1.83620   1.84085   1.84468   1.84762
 Alpha virt. eigenvalues --    1.85163   1.85320   1.85563   1.85622   1.85892
 Alpha virt. eigenvalues --    1.85995   1.86474   1.86864   1.87219   1.87260
 Alpha virt. eigenvalues --    1.87674   1.87783   1.87891   1.88153   1.88501
 Alpha virt. eigenvalues --    1.89035   1.89508   1.89778   1.90043   1.90327
 Alpha virt. eigenvalues --    1.90457   1.90942   1.91350   1.91544   1.91843
 Alpha virt. eigenvalues --    1.92607   1.92643   1.93049   1.93325   1.93467
 Alpha virt. eigenvalues --    1.93916   1.94252   1.94489   1.94695   1.94842
 Alpha virt. eigenvalues --    1.95203   1.95635   1.96414   1.96772   1.97167
 Alpha virt. eigenvalues --    1.97424   1.97752   1.98095   1.98757   1.98999
 Alpha virt. eigenvalues --    1.99306   1.99608   1.99851   2.00554   2.00703
 Alpha virt. eigenvalues --    2.00919   2.01468   2.01818   2.02172   2.02541
 Alpha virt. eigenvalues --    2.02898   2.03291   2.03507   2.04029   2.04065
 Alpha virt. eigenvalues --    2.04376   2.04527   2.04994   2.05340   2.05680
 Alpha virt. eigenvalues --    2.05926   2.06198   2.06398   2.06895   2.07057
 Alpha virt. eigenvalues --    2.07172   2.07345   2.07572   2.07860   2.08310
 Alpha virt. eigenvalues --    2.08526   2.08667   2.09356   2.09587   2.09835
 Alpha virt. eigenvalues --    2.10077   2.10599   2.10767   2.10888   2.11491
 Alpha virt. eigenvalues --    2.11597   2.11700   2.12116   2.12261   2.12364
 Alpha virt. eigenvalues --    2.12624   2.12765   2.12957   2.13562   2.13667
 Alpha virt. eigenvalues --    2.14083   2.14472   2.14624   2.14743   2.14910
 Alpha virt. eigenvalues --    2.15596   2.15806   2.16015   2.16192   2.16308
 Alpha virt. eigenvalues --    2.16476   2.16702   2.17104   2.17420   2.17472
 Alpha virt. eigenvalues --    2.17910   2.18249   2.18592   2.18621   2.18726
 Alpha virt. eigenvalues --    2.19305   2.19357   2.19562   2.19923   2.20609
 Alpha virt. eigenvalues --    2.21316   2.21404   2.21890   2.22096   2.22632
 Alpha virt. eigenvalues --    2.23261   2.23691   2.24117   2.24528   2.24705
 Alpha virt. eigenvalues --    2.24927   2.25201   2.25665   2.25874   2.26118
 Alpha virt. eigenvalues --    2.26634   2.27143   2.27752   2.27945   2.28394
 Alpha virt. eigenvalues --    2.29057   2.29606   2.29745   2.30111   2.30747
 Alpha virt. eigenvalues --    2.31086   2.31589   2.31667   2.32126   2.32424
 Alpha virt. eigenvalues --    2.32690   2.33086   2.33686   2.34874   2.34979
 Alpha virt. eigenvalues --    2.35621   2.36139   2.36258   2.36785   2.37412
 Alpha virt. eigenvalues --    2.37754   2.38234   2.38596   2.38720   2.39490
 Alpha virt. eigenvalues --    2.39725   2.40366   2.40890   2.41216   2.41494
 Alpha virt. eigenvalues --    2.41778   2.42083   2.42127   2.42583   2.42850
 Alpha virt. eigenvalues --    2.42972   2.43315   2.43639   2.43993   2.44067
 Alpha virt. eigenvalues --    2.44484   2.45081   2.45482   2.45706   2.46386
 Alpha virt. eigenvalues --    2.46812   2.46917   2.47062   2.47898   2.48337
 Alpha virt. eigenvalues --    2.48427   2.48975   2.49171   2.49461   2.49971
 Alpha virt. eigenvalues --    2.50460   2.51082   2.51438   2.51932   2.52306
 Alpha virt. eigenvalues --    2.52520   2.53530   2.53760   2.53947   2.54213
 Alpha virt. eigenvalues --    2.55199   2.55524   2.55929   2.56252   2.56369
 Alpha virt. eigenvalues --    2.56925   2.57701   2.58080   2.58384   2.59174
 Alpha virt. eigenvalues --    2.59253   2.59376   2.60010   2.60073   2.61008
 Alpha virt. eigenvalues --    2.61176   2.61443   2.61477   2.61677   2.62442
 Alpha virt. eigenvalues --    2.62615   2.63471   2.63825   2.64225   2.64304
 Alpha virt. eigenvalues --    2.64460   2.64707   2.65258   2.65559   2.66194
 Alpha virt. eigenvalues --    2.66480   2.66787   2.66988   2.67131   2.68180
 Alpha virt. eigenvalues --    2.68352   2.68586   2.68678   2.69232   2.69558
 Alpha virt. eigenvalues --    2.69744   2.69928   2.70642   2.70933   2.71098
 Alpha virt. eigenvalues --    2.71590   2.71802   2.72186   2.72513   2.72965
 Alpha virt. eigenvalues --    2.73409   2.73909   2.74026   2.74135   2.74894
 Alpha virt. eigenvalues --    2.75072   2.75899   2.76150   2.77430   2.77809
 Alpha virt. eigenvalues --    2.78161   2.78936   2.79320   2.79480   2.79580
 Alpha virt. eigenvalues --    2.79788   2.80068   2.80778   2.81185   2.81407
 Alpha virt. eigenvalues --    2.81650   2.81928   2.82266   2.82519   2.82863
 Alpha virt. eigenvalues --    2.83115   2.83301   2.83640   2.84147   2.84719
 Alpha virt. eigenvalues --    2.85434   2.86282   2.86603   2.87182   2.87755
 Alpha virt. eigenvalues --    2.87911   2.88255   2.88660   2.88748   2.88831
 Alpha virt. eigenvalues --    2.89277   2.89703   2.89764   2.90199   2.90785
 Alpha virt. eigenvalues --    2.91017   2.91743   2.92034   2.92335   2.92548
 Alpha virt. eigenvalues --    2.93073   2.93793   2.94799   2.95153   2.95463
 Alpha virt. eigenvalues --    2.95684   2.97222   2.97956   2.98632   2.99848
 Alpha virt. eigenvalues --    2.99905   3.01417   3.02039   3.02272   3.02687
 Alpha virt. eigenvalues --    3.03714   3.04375   3.04642   3.05897   3.07361
 Alpha virt. eigenvalues --    3.08568   3.08622   3.08893   3.09378   3.10059
 Alpha virt. eigenvalues --    3.10285   3.10615   3.10822   3.12521   3.13032
 Alpha virt. eigenvalues --    3.13611   3.14470   3.17216   3.17827   3.17919
 Alpha virt. eigenvalues --    3.18522   3.18551   3.18698   3.20333   3.20932
 Alpha virt. eigenvalues --    3.21349   3.21514   3.21710   3.22228   3.22490
 Alpha virt. eigenvalues --    3.24482   3.24559   3.25258   3.25660   3.26644
 Alpha virt. eigenvalues --    3.27256   3.27372   3.27815   3.28179   3.29621
 Alpha virt. eigenvalues --    3.29699   3.30872   3.31094   3.32022   3.32460
 Alpha virt. eigenvalues --    3.33897   3.36066   3.37423   3.40340   3.40543
 Alpha virt. eigenvalues --    3.40932   3.41890   3.42804   3.43954   3.44444
 Alpha virt. eigenvalues --    3.44756   3.44837   3.45111   3.45214   3.45257
 Alpha virt. eigenvalues --    3.45498   3.46081   3.46552   3.46833   3.47056
 Alpha virt. eigenvalues --    3.47456   3.47801   3.48032   3.49417   3.50998
 Alpha virt. eigenvalues --    3.51082   3.51828   3.53839   3.56706   3.64098
 Alpha virt. eigenvalues --    3.68694   3.69050   3.71675   3.74159   3.74635
 Alpha virt. eigenvalues --    3.76557   3.87767   3.97320   4.04026   4.07251
 Alpha virt. eigenvalues --    4.12144   4.13563   4.14823   4.16659   4.17694
 Alpha virt. eigenvalues --    4.18241   4.19208   4.20197   4.21033   4.23106
 Alpha virt. eigenvalues --    4.24154   4.24815   4.25926   4.26744   4.26820
 Alpha virt. eigenvalues --    4.27464   4.29551   4.29791   4.32843   4.35663
 Alpha virt. eigenvalues --    4.37069   4.38051   4.39474   4.40576   4.41421
 Alpha virt. eigenvalues --    4.42641   4.44349   4.45012   4.45359   4.46333
 Alpha virt. eigenvalues --    4.47256   4.48613   4.49508   4.51924   4.52010
 Alpha virt. eigenvalues --    4.54179   4.55662   4.58120   4.58684   4.60698
 Alpha virt. eigenvalues --    4.62075   4.62626   4.63226   4.63974   4.65211
 Alpha virt. eigenvalues --    4.68235   4.73274   4.73344   4.83703   4.85227
 Alpha virt. eigenvalues --    4.86969   4.87588   4.88074   4.90530   4.92413
 Alpha virt. eigenvalues --    4.96538   4.99656   5.24359   5.34332   5.79429
          Condensed to atoms (all electrons):
 Mulliken charges:
               1
     1  O   -0.555103
     2  N   -0.610614
     3  O   -0.510495
     4  O   -0.501271
     5  C   -0.328286
     6  N    0.402328
     7  C    0.204778
     8  C    0.662389
     9  C    0.002495
    10  C   -0.058712
    11  C    0.604091
    12  C   -0.140984
    13  C   -0.115234
    14  C   -0.152796
    15  C    0.327008
    16  O   -0.386929
    17  O   -0.391899
    18  H    0.268236
    19  H    0.295851
    20  H    0.362350
    21  H    0.132779
    22  H    0.115917
    23  H    0.169725
    24  H    0.176726
    25  H    0.182746
    26  H    0.145981
    27  H    0.439236
    28  O   -0.583028
    29  O   -0.612575
    30  C   -0.408654
    31  O   -0.628376
    32  C   -0.412657
    33  C   -0.378122
    34  O   -0.634065
    35  C   -0.383499
    36  C   -0.410197
    37  C   -0.399052
    38  C   -0.205120
    39  C    0.135041
    40  C   -0.147994
    41  C   -0.191845
    42  C    0.101559
    43  C    0.138407
    44  C   -0.056647
    45  C    0.205701
    46  C   -0.142603
    47  C    0.105133
    48  C   -0.212173
    49  C    0.105866
    50  C    0.028222
    51  C   -0.151873
    52  C    0.001487
    53  C    0.209366
    54  C   -0.266108
    55  C    0.003897
    56  C   -0.146625
    57  C   -0.060768
    58  C    0.027573
    59  C   -0.221362
    60  C   -0.148473
    61  C    0.100024
    62  C   -0.184267
    63  C    0.134447
    64  C    0.097086
    65  C   -0.212184
    66  C   -0.267199
    67  P    1.299273
    68  H    0.134291
    69  H    0.126984
    70  H    0.140338
    71  H    0.170106
    72  H    0.121149
    73  H    0.130684
    74  H    0.151365
    75  H    0.098459
    76  H    0.107301
    77  H    0.117573
    78  H    0.161577
    79  H    0.128487
    80  H    0.137327
    81  H    0.159638
    82  H    0.117867
    83  H    0.129029
    84  H    0.154670
    85  H    0.119123
    86  H    0.095805
    87  H    0.119219
    88  H    0.101156
    89  H    0.138802
    90  H    0.115441
    91  H    0.125769
    92  H    0.138051
    93  H    0.133834
    94  H    0.121334
    95  H    0.085762
    96  H    0.128340
    97  H    0.071782
    98  H    0.115611
    99  H    0.138330
   100  H    0.137161
   101  H    0.134171
   102  O   -0.553666
   103  C   -0.004749
   104  H    0.151460
   105  H    0.162965
   106  C    0.514923
   107  C    0.803563
   108  F   -0.275120
   109  F   -0.287834
   110  F   -0.267551
   111  F   -0.263124
   112  F   -0.255335
 Sum of Mulliken charges =  -0.00000
 Mulliken charges with hydrogens summed into heavy atoms:
               1
     1  O   -0.555103
     2  N   -0.314763
     3  O   -0.148145
     4  O   -0.501271
     5  C    0.090135
     6  N    0.402328
     7  C    0.204778
     8  C    0.662389
     9  C    0.002495
    10  C    0.209524
    11  C    0.604091
    12  C    0.035742
    13  C    0.067512
    14  C   -0.006815
    15  C    0.327008
    16  O   -0.386929
    17  O   -0.391899
    28  O   -0.583028
    29  O   -0.612575
    30  C   -0.007041
    31  O   -0.628376
    32  C    0.009282
    33  C   -0.020997
    34  O   -0.194829
    35  C    0.024138
    36  C    0.004635
    37  C    0.003770
    38  C   -0.109314
    39  C    0.135041
    40  C   -0.028775
    41  C   -0.090689
    42  C    0.101559
    43  C    0.138407
    44  C   -0.056647
    45  C    0.205701
    46  C   -0.142603
    47  C    0.105133
    48  C    0.042070
    49  C    0.105866
    50  C    0.028222
    51  C   -0.026104
    52  C    0.001487
    53  C    0.209366
    54  C    0.005777
    55  C    0.003897
    56  C   -0.025291
    57  C   -0.060768
    58  C    0.027573
    59  C   -0.135599
    60  C   -0.020133
    61  C    0.100024
    62  C   -0.112484
    63  C    0.134447
    64  C    0.097086
    65  C    0.041757
    66  C    0.004133
    67  P    1.299273
   102  O   -0.553666
   103  C    0.309676
   106  C    0.514923
   107  C    0.803563
   108  F   -0.275120
   109  F   -0.287834
   110  F   -0.267551
   111  F   -0.263124
   112  F   -0.255335
 APT charges:
               1
     1  O    0.104092
     2  N   -0.920611
     3  O   -0.884031
     4  O   -0.796277
     5  C   -1.154934
     6  N   -1.064716
     7  C    0.950069
     8  C   -0.254621
     9  C   -0.804805
    10  C    0.072297
    11  C    0.502280
    12  C   -0.499851
    13  C   -0.381834
    14  C   -0.601710
    15  C    0.162098
    16  O    0.325482
    17  O    0.457156
    18  H    0.061593
    19  H    0.848209
    20  H    1.109158
    21  H    0.367235
    22  H    0.671962
    23  H    0.115654
    24  H   -0.070135
    25  H    1.199900
    26  H    0.430879
    27  H    0.409075
    28  O   -1.164221
    29  O   -0.258284
    30  C   -1.370296
    31  O   -0.223068
    32  C   -1.022671
    33  C   -1.366261
    34  O   -0.169613
    35  C   -0.879524
    36  C   -1.443859
    37  C   -1.336930
    38  C   -0.510847
    39  C   -0.542192
    40  C   -0.441928
    41  C   -0.479610
    42  C    0.086981
    43  C    0.267622
    44  C   -0.248028
    45  C   -0.686437
    46  C   -0.044643
    47  C   -0.325883
    48  C   -0.911383
    49  C    0.157472
    50  C    0.621864
    51  C   -0.362779
    52  C   -0.540758
    53  C   -0.184503
    54  C   -1.522672
    55  C   -0.686407
    56  C   -0.501473
    57  C   -0.275237
    58  C    0.563029
    59  C   -0.456833
    60  C   -0.505594
    61  C    0.194642
    62  C   -0.529233
    63  C   -0.368790
    64  C    0.140625
    65  C   -0.854778
    66  C   -2.071106
    67  P    0.822972
    68  H    0.773670
    69  H    0.906646
    70  H   -0.223516
    71  H   -0.291533
    72  H    0.575964
    73  H    0.814959
    74  H    0.716652
    75  H    0.080818
    76  H    0.634526
    77  H    0.584061
    78  H    0.207620
    79  H    0.165861
    80  H    0.565305
    81  H    0.203109
    82  H    0.789696
    83  H    1.114403
    84  H   -0.085887
    85  H    0.397434
    86  H    0.714212
    87  H    1.493166
    88  H    0.361572
    89  H   -0.135725
    90  H    1.115942
    91  H    1.019215
    92  H    0.453741
    93  H    1.027691
    94  H    0.876017
    95  H    0.791314
    96  H    0.402328
    97  H    0.203512
    98  H    0.798134
    99  H    0.062786
   100  H    0.984233
   101  H    0.917024
   102  O   -0.238463
   103  C   -0.480486
   104  H   -0.249798
   105  H    0.748190
   106  C   -0.283080
   107  C   -0.248634
   108  F    0.343887
   109  F   -0.431709
   110  F   -0.536062
   111  F    0.438160
   112  F    1.000069
 Sum of APT charges =  -0.00000
 APT charges with hydrogens summed into heavy atoms:
               1
     1  O    0.104092
     2  N   -0.072403
     3  O    0.225127
     4  O   -0.796277
     5  C   -0.000083
     6  N   -1.064716
     7  C    0.950069
     8  C   -0.254621
     9  C   -0.804805
    10  C    0.133890
    11  C    0.502280
    12  C   -0.569986
    13  C    0.818065
    14  C   -0.170832
    15  C    0.162098
    16  O    0.325482
    17  O    0.457156
    28  O   -1.164221
    29  O   -0.258284
    30  C    0.086504
    31  O   -0.223068
    32  C    0.076719
    33  C    0.065735
    34  O    0.239462
    35  C    0.078019
    36  C    0.114251
    37  C    0.089020
    38  C    0.203365
    39  C   -0.542192
    40  C    1.051237
    41  C   -0.118038
    42  C    0.086981
    43  C    0.267622
    44  C   -0.248028
    45  C   -0.686437
    46  C   -0.044643
    47  C   -0.325883
    48  C    0.068834
    49  C    0.157472
    50  C    0.621864
    51  C    0.656436
    52  C   -0.540758
    53  C   -0.184503
    54  C   -0.041239
    55  C   -0.686407
    56  C    0.374544
    57  C   -0.275237
    58  C    0.563029
    59  C    0.334481
    60  C   -0.103266
    61  C    0.194642
    62  C   -0.325721
    63  C   -0.368790
    64  C    0.140625
    65  C    0.006142
    66  C   -0.169848
    67  P    0.822972
   102  O   -0.238463
   103  C    0.017906
   106  C   -0.283080
   107  C   -0.248634
   108  F    0.343887
   109  F   -0.431709
   110  F   -0.536062
   111  F    0.438160
   112  F    1.000069
 Electronic spatial extent (au):  <R**2>=          61101.3231
 Charge=             -0.0000 electrons
 Dipole moment (field-independent basis, Debye):
    X=             -6.0959    Y=              2.4862    Z=              2.1860  Tot=              6.9368
 Quadrupole moment (field-independent basis, Debye-Ang):
   XX=           -418.5188   YY=           -357.1131   ZZ=           -368.7537
   XY=             23.6953   XZ=             -6.1861   YZ=             13.5736
 Traceless Quadrupole moment (field-independent basis, Debye-Ang):
   XX=            -37.0569   YY=             24.3487   ZZ=             12.7081
   XY=             23.6953   XZ=             -6.1861   YZ=             13.5736
 Octapole moment (field-independent basis, Debye-Ang**2):
  XXX=           -326.0021  YYY=            -38.0101  ZZZ=              3.0168  XYY=            107.0777
  XXY=            -55.6225  XXZ=           -121.1691  XZZ=            137.3466  YZZ=             30.7013
  YYZ=            -16.8559  XYZ=            -41.3491
 Hexadecapole moment (field-independent basis, Debye-Ang**3):
 XXXX=         -56946.5277 YYYY=         -13597.6033 ZZZZ=          -9651.9538 XXXY=             42.9453
 XXXZ=          -1334.7036 YYYX=           -143.4784 YYYZ=            454.3400 ZZZX=           -895.2251
 ZZZY=            417.4140 XXYY=         -11108.3344 XXZZ=         -10966.9489 YYZZ=          -4007.3502
 XXYZ=            -31.1582 YYXZ=           -137.4136 ZZXY=           -111.6636
 N-N= 1.124074355519D+04 E-N=-3.080702072447D+04  KE= 3.531136937755D+03
  Exact polarizability:       0.000       0.000       0.000       0.000       0.000       0.000
 Approx polarizability:     756.080      27.296     684.806      -1.604      94.018     621.223

 This type of calculation cannot be archived.


 It is also a good rule not to put too much confidence in
 experimental results until they have been confirmed by
 Theory.
                             -- Sir Arthur Eddington
 Job cpu time:       3 days 12 hours 16 minutes 33.6 seconds.
 Elapsed time:       0 days  5 hours 17 minutes  5.0 seconds.
 File lengths (MBytes):  RWF=    986 Int=      0 D2E=      0 Chk=    133 Scr=      1
 Normal termination of Gaussian 16 at Sat Nov 12 12:33:03 2022.
