 Entering Gaussian System, Link 0=g16
 Initial command:
 /project/chenjingdan/g16/l1.exe "/scratch/chenjingdan/scratch/Gau-5218.inp" -scrdir="/scratch/chenjingdan/scratch/"
 Entering Link 1 = /project/chenjingdan/g16/l1.exe PID=      5219.
  
 Copyright (c) 1988-2019, Gaussian, Inc.  All Rights Reserved.
  
 This is part of the Gaussian(R) 16 program.  It is based on
 the Gaussian(R) 09 system (copyright 2009, Gaussian, Inc.),
 the Gaussian(R) 03 system (copyright 2003, Gaussian, Inc.),
 the Gaussian(R) 98 system (copyright 1998, Gaussian, Inc.),
 the Gaussian(R) 94 system (copyright 1995, Gaussian, Inc.),
 the Gaussian 92(TM) system (copyright 1992, Gaussian, Inc.),
 the Gaussian 90(TM) system (copyright 1990, Gaussian, Inc.),
 the Gaussian 88(TM) system (copyright 1988, Gaussian, Inc.),
 the Gaussian 86(TM) system (copyright 1986, Carnegie Mellon
 University), and the Gaussian 82(TM) system (copyright 1983,
 Carnegie Mellon University). Gaussian is a federally registered
 trademark of Gaussian, Inc.
  
 This software contains proprietary and confidential information,
 including trade secrets, belonging to Gaussian, Inc.
  
 This software is provided under written license and may be
 used, copied, transmitted, or stored only in accord with that
 written license.
  
 The following legend is applicable only to US Government
 contracts under FAR:
  
                    RESTRICTED RIGHTS LEGEND
  
 Use, reproduction and disclosure by the US Government is
 subject to restrictions as set forth in subparagraphs (a)
 and (c) of the Commercial Computer Software - Restricted
 Rights clause in FAR 52.227-19.
  
 Gaussian, Inc.
 340 Quinnipiac St., Bldg. 40, Wallingford CT 06492
  
  
 ---------------------------------------------------------------
 Warning -- This program may not be used in any manner that
 competes with the business of Gaussian, Inc. or will provide
 assistance to any competitor of Gaussian, Inc.  The licensee
 of this program is prohibited from giving any competitor of
 Gaussian, Inc. access to this program.  By using this program,
 the user acknowledges that Gaussian, Inc. is engaged in the
 business of creating and licensing software in the field of
 computational chemistry and represents and warrants to the
 licensee that it is not a competitor of Gaussian, Inc. and that
 it will not use this program in any manner prohibited above.
 ---------------------------------------------------------------
  

 Cite this work as:
 Gaussian 16, Revision C.01,
 M. J. Frisch, G. W. Trucks, H. B. Schlegel, G. E. Scuseria, 
 M. A. Robb, J. R. Cheeseman, G. Scalmani, V. Barone, 
 G. A. Petersson, H. Nakatsuji, X. Li, M. Caricato, A. V. Marenich, 
 J. Bloino, B. G. Janesko, R. Gomperts, B. Mennucci, H. P. Hratchian, 
 J. V. Ortiz, A. F. Izmaylov, J. L. Sonnenberg, D. Williams-Young, 
 F. Ding, F. Lipparini, F. Egidi, J. Goings, B. Peng, A. Petrone, 
 T. Henderson, D. Ranasinghe, V. G. Zakrzewski, J. Gao, N. Rega, 
 G. Zheng, W. Liang, M. Hada, M. Ehara, K. Toyota, R. Fukuda, 
 J. Hasegawa, M. Ishida, T. Nakajima, Y. Honda, O. Kitao, H. Nakai, 
 T. Vreven, K. Throssell, J. A. Montgomery, Jr., J. E. Peralta, 
 F. Ogliaro, M. J. Bearpark, J. J. Heyd, E. N. Brothers, K. N. Kudin, 
 V. N. Staroverov, T. A. Keith, R. Kobayashi, J. Normand, 
 K. Raghavachari, A. P. Rendell, J. C. Burant, S. S. Iyengar, 
 J. Tomasi, M. Cossi, J. M. Millam, M. Klene, C. Adamo, R. Cammi, 
 J. W. Ochterski, R. L. Martin, K. Morokuma, O. Farkas, 
 J. B. Foresman, and D. J. Fox, Gaussian, Inc., Wallingford CT, 2019.
 
 ******************************************
 Gaussian 16:  ES64L-G16RevC.01  3-Jul-2019
                11-Nov-2022 
 ******************************************
 %nproc=16
 Will use up to   16 processors via shared memory.
 %mem=60GB
 %chk=N1_S_PA1_ts2_opts.chk
 -------------------------------------------------------
 # irc=(calcfc,maxpoints=30,stepsize=5) 6-31g(d,p) m062x
 -------------------------------------------------------
 1/10=4,18=10,26=3,38=1,39=5,42=30,44=3,172=1/1,23;
 2/12=2,17=6,18=5,29=1,40=1/2;
 3/5=1,6=6,7=101,11=2,25=1,30=1,71=2,74=-55,140=1/1,2,3;
 4//1;
 5/5=2,38=5/2;
 8/6=4,10=90,11=11/1;
 11/6=1,8=1,9=11,15=111,16=1/1,2,10;
 10/6=1,13=1/2;
 6/7=2,8=2,9=2,10=2,28=1/1;
 7/10=1,25=1/1,2,3,16;
 1/10=4,18=10,26=3,39=5,42=30,44=3/23(2);
 2/29=1/2;
 99/5=20/99;
 2/29=1/2;
 3/5=1,6=6,7=101,11=2,25=1,30=1,71=2,74=-55,140=1/1,2,3;
 4/5=5,16=3,69=1/1;
 5/5=2,38=5/2;
 8/6=4,10=90,11=11/1;
 11/6=1,8=1,9=11,15=111,16=1/1,2,10;
 10/6=1,13=1/2;
 7/10=1,25=1/1,2,3,16;
 1/18=10,26=3,39=5,42=30,44=3/23(-8);
 2/29=1/2;
 6/7=2,8=2,9=2,10=2,19=2,28=1/1;
 99/5=20,9=1/99;
 ---------------------
 N1_S_PA1_ts2_opts.out
 ---------------------
 Symbolic Z-matrix:
 Charge =  0 Multiplicity = 1
 O                     1.84427   2.99403  -1.46093 
 N                    -1.32497   1.85199   0.0487 
 O                     0.50372   4.1386   -0.20287 
 O                    -1.91907   4.05659   0.20784 
 C                    -0.20605   0.93144  -1.9136 
 N                    -7.30089   1.60304   2.55866 
 C                    -5.96945   1.86263   1.99667 
 C                     0.73088   3.01725  -0.80118 
 C                    -3.48368   2.45734   0.94902 
 C                    -0.07301   1.83967  -0.69488 
 C                    -2.16154   2.84487   0.35966 
 C                    -4.04788   3.29565   1.91246 
 C                    -5.42365   1.01838   1.02604 
 C                    -4.17017   1.33049   0.50588 
 C                    -5.28492   2.9831    2.45449 
 O                    -7.49475   1.96617   3.70227 
 O                    -8.12392   1.06954   1.83847 
 H                     2.25542   2.05911  -1.58553 
 H                    -1.61671   0.91372   0.3115 
 H                    -0.50121   4.21965   0.01867 
 H                    -1.07558   1.21818  -2.51586 
 H                     0.68529   0.96945  -2.53844 
 H                    -0.3349   -0.11021  -1.59603 
 H                    -3.50859   4.18345   2.22137 
 H                    -3.75663   0.68129  -0.26045 
 H                    -5.74374   3.59262   3.22384 
 O                     1.57443   0.30679   0.6439 
 O                     4.04317   0.05417   0.6993 
 C                     3.7343    6.19094  -0.29321 
 O                     2.70091  -1.63128  -0.64564 
 C                     5.71115   2.2289    2.09537 
 C                    -3.7895   -1.67735  -1.61938 
 O                     2.87669   0.69993  -1.54933 
 C                    -0.65367  -1.3365    2.30085 
 C                     0.81241  -3.6841   -1.97029 
 C                     5.27149   2.24273  -2.97654 
 C                     4.62231   4.20437  -1.55832 
 C                     5.73596  -1.50756   0.04493 
 C                     7.63801  -0.77626  -1.25751 
 C                     4.78646   4.18667   0.82573 
 C                     4.41313   4.84822  -0.34046 
 C                     3.74746  -2.98071   1.04204 
 C                     5.47849   2.25066  -0.43621 
 C                     5.27596  -0.20157   0.09345 
 C                     5.21352  -2.76488   0.71067 
 C                     5.319     2.89727   0.80068 
 C                     5.84871  -2.96272   2.11705 
 C                     5.13935   2.91382  -1.63066 
 C                     6.89689  -1.79664  -0.6776 
 C                     7.19242   0.53811  -1.13407 
 C                     1.32539  -2.94829   0.83041 
 C                     2.59485  -2.53184   0.41098 
 C                     4.99101  -4.05739   2.77505 
 C                     5.99329   0.8531   -0.48522 
 C                     2.38881  -4.24233   2.60221 
 C                     0.06549  -2.51512   0.15775 
 C                     3.63123  -3.80293   2.1675 
 C                    -1.44696  -2.61921  -1.72652 
 C                     1.25111  -3.82795   1.91674 
 C                    -0.20314  -2.91526  -1.16459 
 C                    -2.14812  -1.558     0.29701 
 C                    -0.90793  -1.81023   0.8897 
 C                    -2.43919  -1.95505  -1.00945 
 C                     5.75954  -3.84387  -0.2669 
 C                     7.12461  -3.291    -0.72053 
 P                     2.75744  -0.05938  -0.26613 
 H                     0.8436    1.05479   0.11392 
 H                     4.04325   6.82459  -1.12872 
 H                     2.64949   6.05454  -0.35962 
 H                     3.95272   6.71775   0.63888 
 H                     4.96457   1.48684   2.39497 
 H                     5.79547   2.96712   2.89595 
 H                     6.67044   1.71185   2.00236 
 H                    -4.09999  -2.48467  -2.28726 
 H                    -4.5495   -1.57389  -0.84152 
 H                    -3.77084  -0.75612  -2.21724 
 H                    -0.76662  -2.14673   3.02739 
 H                     0.35716  -0.93518   2.39692 
 H                    -1.36839  -0.55413   2.57335 
 H                     1.23788  -4.50486  -1.3858 
 H                     1.6391   -3.0342   -2.27176 
 H                     0.35508  -4.10072  -2.86983 
 H                     4.70161   2.79456  -3.7279 
 H                     6.31194   2.20249  -3.3146 
 H                     4.89002   1.21972  -2.93761 
 H                     4.32728   4.70425  -2.47833 
 H                     8.54615  -0.99643  -1.81066 
 H                     4.65073   4.68075   1.7855 
 H                     5.74772  -2.02726   2.67749 
 H                     6.91186  -3.21146   2.05847 
 H                     7.76491   1.34954  -1.57307 
 H                     4.97821  -3.99105   3.86615 
 H                     5.35405  -5.0594    2.51559 
 H                     2.3018   -4.89059   3.46884 
 H                    -1.65349  -2.94399  -2.74386 
 H                     0.27076  -4.17339   2.23143 
 H                    -2.92564  -1.08641   0.89742 
 H                     5.81824  -4.83244   0.19734 
 H                     5.08298  -3.90891  -1.12567 
 H                     7.4126   -3.63926  -1.716 
 H                     7.92399  -3.58825  -0.03084 
 O                    -6.04479  -0.13045   0.63197 
 C                    -6.80244   0.00178  -0.55773 
 H                    -7.52018   0.82256  -0.47818 
 H                    -6.14322   0.15088  -1.42237 
 C                    -7.57079  -1.29482  -0.72408 
 C                    -8.14168  -1.43653  -2.13791 
 F                    -6.76465  -2.35855  -0.51682 
 F                    -8.5917   -1.36237   0.14852 
 F                    -8.86328  -0.35525  -2.44449 
 F                    -7.13801  -1.53484  -3.01568 
 F                    -8.90809  -2.51265  -2.2374 
 
 IRC-IRC-IRC-IRC-IRC-IRC-IRC-IRC-IRC-IRC-IRC-IRC-IRC-IRC-IRC-IRC-IRC-IRC
 ------------------------------------------------------------------------
 INPUT DATA FOR L123
 ------------------------------------------------------------------------
 GENERAL PARAMETERS:
 Follow reaction path in both directions.
 Maximum points per path      =  30
 Step size                    =   0.050 bohr
 Integration scheme           = HPC                                 
    Redo corrector integration= Yes                                 
    DWI Weight Power          =  2
    DWI will use Hessian update vectors when possible.
    Max correction cycles     =  20
 Initial Hessian              = CalcFC
 Hessian evaluation           = All updating
 Hessian updating method      = Bofill                              
 ------------------------------------------------------------------------
 IRC-IRC-IRC-IRC-IRC-IRC-IRC-IRC-IRC-IRC-IRC-IRC-IRC-IRC-IRC-IRC-IRC-IRC
 Symmetry turned off by external request.
 Stoichiometry    C48H46F5N2O10P
 Framework group  C1[X(C48H46F5N2O10P)]
 Deg. of freedom   330
 Full point group                 C1      NOp   1
                          Input orientation:                          
 ---------------------------------------------------------------------
 Center     Atomic      Atomic             Coordinates (Angstroms)
 Number     Number       Type             X           Y           Z
 ---------------------------------------------------------------------
      1          8           0        1.844270    2.994030   -1.460930
      2          7           0       -1.324970    1.851990    0.048700
      3          8           0        0.503720    4.138600   -0.202870
      4          8           0       -1.919070    4.056590    0.207840
      5          6           0       -0.206050    0.931440   -1.913600
      6          7           0       -7.300890    1.603040    2.558660
      7          6           0       -5.969450    1.862630    1.996670
      8          6           0        0.730880    3.017250   -0.801180
      9          6           0       -3.483680    2.457340    0.949020
     10          6           0       -0.073010    1.839670   -0.694880
     11          6           0       -2.161540    2.844870    0.359660
     12          6           0       -4.047880    3.295650    1.912460
     13          6           0       -5.423650    1.018380    1.026040
     14          6           0       -4.170170    1.330490    0.505880
     15          6           0       -5.284920    2.983100    2.454490
     16          8           0       -7.494750    1.966170    3.702270
     17          8           0       -8.123920    1.069540    1.838470
     18          1           0        2.255420    2.059110   -1.585530
     19          1           0       -1.616710    0.913720    0.311500
     20          1           0       -0.501210    4.219650    0.018670
     21          1           0       -1.075580    1.218180   -2.515860
     22          1           0        0.685290    0.969450   -2.538440
     23          1           0       -0.334900   -0.110210   -1.596030
     24          1           0       -3.508590    4.183450    2.221370
     25          1           0       -3.756630    0.681290   -0.260450
     26          1           0       -5.743740    3.592620    3.223840
     27          8           0        1.574430    0.306790    0.643900
     28          8           0        4.043170    0.054170    0.699300
     29          6           0        3.734300    6.190940   -0.293210
     30          8           0        2.700910   -1.631280   -0.645640
     31          6           0        5.711150    2.228900    2.095370
     32          6           0       -3.789500   -1.677350   -1.619380
     33          8           0        2.876690    0.699930   -1.549330
     34          6           0       -0.653670   -1.336500    2.300850
     35          6           0        0.812410   -3.684100   -1.970290
     36          6           0        5.271490    2.242730   -2.976540
     37          6           0        4.622310    4.204370   -1.558320
     38          6           0        5.735960   -1.507560    0.044930
     39          6           0        7.638010   -0.776260   -1.257510
     40          6           0        4.786460    4.186670    0.825730
     41          6           0        4.413130    4.848220   -0.340460
     42          6           0        3.747460   -2.980710    1.042040
     43          6           0        5.478490    2.250660   -0.436210
     44          6           0        5.275960   -0.201570    0.093450
     45          6           0        5.213520   -2.764880    0.710670
     46          6           0        5.319000    2.897270    0.800680
     47          6           0        5.848710   -2.962720    2.117050
     48          6           0        5.139350    2.913820   -1.630660
     49          6           0        6.896890   -1.796640   -0.677600
     50          6           0        7.192420    0.538110   -1.134070
     51          6           0        1.325390   -2.948290    0.830410
     52          6           0        2.594850   -2.531840    0.410980
     53          6           0        4.991010   -4.057390    2.775050
     54          6           0        5.993290    0.853100   -0.485220
     55          6           0        2.388810   -4.242330    2.602210
     56          6           0        0.065490   -2.515120    0.157750
     57          6           0        3.631230   -3.802930    2.167500
     58          6           0       -1.446960   -2.619210   -1.726520
     59          6           0        1.251110   -3.827950    1.916740
     60          6           0       -0.203140   -2.915260   -1.164590
     61          6           0       -2.148120   -1.558000    0.297010
     62          6           0       -0.907930   -1.810230    0.889700
     63          6           0       -2.439190   -1.955050   -1.009450
     64          6           0        5.759540   -3.843870   -0.266900
     65          6           0        7.124610   -3.291000   -0.720530
     66         15           0        2.757440   -0.059380   -0.266130
     67          1           0        0.843600    1.054790    0.113920
     68          1           0        4.043250    6.824590   -1.128720
     69          1           0        2.649490    6.054540   -0.359620
     70          1           0        3.952720    6.717750    0.638880
     71          1           0        4.964570    1.486840    2.394970
     72          1           0        5.795470    2.967120    2.895950
     73          1           0        6.670440    1.711850    2.002360
     74          1           0       -4.099990   -2.484670   -2.287260
     75          1           0       -4.549500   -1.573890   -0.841520
     76          1           0       -3.770840   -0.756120   -2.217240
     77          1           0       -0.766620   -2.146730    3.027390
     78          1           0        0.357160   -0.935180    2.396920
     79          1           0       -1.368390   -0.554130    2.573350
     80          1           0        1.237880   -4.504860   -1.385800
     81          1           0        1.639100   -3.034200   -2.271760
     82          1           0        0.355080   -4.100720   -2.869830
     83          1           0        4.701610    2.794560   -3.727900
     84          1           0        6.311940    2.202490   -3.314600
     85          1           0        4.890020    1.219720   -2.937610
     86          1           0        4.327280    4.704250   -2.478330
     87          1           0        8.546150   -0.996430   -1.810660
     88          1           0        4.650730    4.680750    1.785500
     89          1           0        5.747720   -2.027260    2.677490
     90          1           0        6.911860   -3.211460    2.058470
     91          1           0        7.764910    1.349540   -1.573070
     92          1           0        4.978210   -3.991050    3.866150
     93          1           0        5.354050   -5.059400    2.515590
     94          1           0        2.301800   -4.890590    3.468840
     95          1           0       -1.653490   -2.943990   -2.743860
     96          1           0        0.270760   -4.173390    2.231430
     97          1           0       -2.925640   -1.086410    0.897420
     98          1           0        5.818240   -4.832440    0.197340
     99          1           0        5.082980   -3.908910   -1.125670
    100          1           0        7.412600   -3.639260   -1.716000
    101          1           0        7.923990   -3.588250   -0.030840
    102          8           0       -6.044790   -0.130450    0.631970
    103          6           0       -6.802440    0.001780   -0.557730
    104          1           0       -7.520180    0.822560   -0.478180
    105          1           0       -6.143220    0.150880   -1.422370
    106          6           0       -7.570790   -1.294820   -0.724080
    107          6           0       -8.141680   -1.436530   -2.137910
    108          9           0       -6.764650   -2.358550   -0.516820
    109          9           0       -8.591700   -1.362370    0.148520
    110          9           0       -8.863280   -0.355250   -2.444490
    111          9           0       -7.138010   -1.534840   -3.015680
    112          9           0       -8.908090   -2.512650   -2.237400
 ---------------------------------------------------------------------
 Rotational constants (GHZ):           0.0600100           0.0194016           0.0168625
 Standard basis: 6-31G(d,p) (6D, 7F)
  1224 basis functions,  2194 primitive gaussians,  1224 cartesian basis functions
   244 alpha electrons      244 beta electrons
       nuclear repulsion energy     11271.9244179080 Hartrees.
 NAtoms=  112 NActive=  112 NUniq=  112 SFac= 1.00D+00 NAtFMM=   60 NAOKFM=T Big=T
 Integral buffers will be    131072 words long.
 Raffenetti 2 integral format.
 Two-electron integral symmetry is turned off.
 One-electron integrals computed using PRISM.
 NBasis=  1224 RedAO= T EigKep=  2.35D-04  NBF=  1224
 NBsUse=  1224 1.00D-06 EigRej= -1.00D+00 NBFU=  1224
 ExpMin= 9.98D-02 ExpMax= 1.94D+04 ExpMxC= 2.91D+03 IAcc=3 IRadAn=         5 AccDes= 0.00D+00
 Harris functional with IExCor= 1009 and IRadAn=       5 diagonalized for initial guess.
 HarFok:  IExCor= 1009 AccDes= 0.00D+00 IRadAn=         5 IDoV= 1 UseB2=F ITyADJ=14
 ICtDFT=  3500011 ScaDFX=  1.000000  1.000000  1.000000  1.000000
 FoFCou: FMM=F IPFlag=           0 FMFlag=      100000 FMFlg1=        2001
         NFxFlg=           0 DoJE=T BraDBF=F KetDBF=T FulRan=T
         wScrn=  0.000000 ICntrl=       500 IOpCl=  0 I1Cent=   200000004 NGrid=           0
         NMat0=    1 NMatS0=      1 NMatT0=    0 NMatD0=    1 NMtDS0=    0 NMtDT0=    0
 Symmetry not used in FoFCou.
 Requested convergence on RMS density matrix=1.00D-08 within 128 cycles.
 Requested convergence on MAX density matrix=1.00D-06.
 Requested convergence on             energy=1.00D-06.
 No special actions if energy rises.
 Integral accuracy reduced to 1.0D-05 until final iterations.
 Initial convergence to 1.0D-05 achieved.  Increase integral accuracy.
 SCF Done:  E(RM062X) =  -3557.95880190     A.U. after   15 cycles
            NFock= 15  Conv=0.86D-08     -V/T= 2.0077
 DoSCS=F DFT=T ScalE2(SS,OS)=  1.000000  1.000000
 Range of M.O.s used for correlation:     1  1224
 NBasis=  1224 NAE=   244 NBE=   244 NFC=     0 NFV=     0
 NROrb=   1224 NOA=   244 NOB=   244 NVA=   980 NVB=   980
 Symmetrizing basis deriv contribution to polar:
 IMax=3 JMax=2 DiffMx= 0.00D+00
 G2DrvN: will do   113 centers at a time, making    1 passes.
 Calling FoFCou, ICntrl=  3107 FMM=T I1Cent=   0 AccDes= 0.00D+00.
 End of G2Drv F.D. properties file   721 does not exist.
 End of G2Drv F.D. properties file   722 does not exist.
 End of G2Drv F.D. properties file   788 does not exist.
          IDoAtm=11111111111111111111111111111111111111111111111111
          IDoAtm=11111111111111111111111111111111111111111111111111
          IDoAtm=111111111111
          Differentiating once with respect to nuclear coordinates.
 CalDSu exits because no D1Ps are significant.
          There are   339 degrees of freedom in the 1st order CPHF.  IDoFFX=6 NUNeed=     0.
    334 vectors produced by pass  0 Test12= 2.39D-13 1.00D-09 XBig12= 1.96D-01 1.11D-01.
 AX will form    72 AO Fock derivatives at one time.
    333 vectors produced by pass  1 Test12= 2.39D-13 1.00D-09 XBig12= 3.94D-02 3.85D-02.
    333 vectors produced by pass  2 Test12= 2.39D-13 1.00D-09 XBig12= 1.64D-03 5.40D-03.
    333 vectors produced by pass  3 Test12= 2.39D-13 1.00D-09 XBig12= 1.81D-05 4.62D-04.
    333 vectors produced by pass  4 Test12= 2.39D-13 1.00D-09 XBig12= 1.71D-07 4.94D-05.
    333 vectors produced by pass  5 Test12= 2.39D-13 1.00D-09 XBig12= 8.75D-10 3.36D-06.
    223 vectors produced by pass  6 Test12= 2.39D-13 1.00D-09 XBig12= 2.99D-12 1.19D-07.
     16 vectors produced by pass  7 Test12= 2.39D-13 1.00D-09 XBig12= 8.60D-15 5.79D-09.
      2 vectors produced by pass  8 Test12= 2.39D-13 1.00D-09 XBig12= 9.81D-15 2.92D-09.
 InvSVY:  IOpt=1 It=  1 EMax= 5.27D-16
 Solved reduced A of dimension  2240 with   339 vectors.
 End of Minotr F.D. properties file   721 does not exist.
 End of Minotr F.D. properties file   722 does not exist.
 End of Minotr F.D. properties file   788 does not exist.
 Hyperfine terms turned off by default for NAtoms > 100.

 **********************************************************************

            Population analysis using the SCF Density.

 **********************************************************************

 Alpha  occ. eigenvalues --  -78.21632 -25.31440 -25.31420 -25.31181 -25.29541
 Alpha  occ. eigenvalues --  -25.29061 -19.70928 -19.69586 -19.69482 -19.68835
 Alpha  occ. eigenvalues --  -19.68540 -19.67583 -19.67108 -19.65754 -19.64568
 Alpha  occ. eigenvalues --  -19.62214 -15.03193 -14.83226 -10.82556 -10.75210
 Alpha  occ. eigenvalues --  -10.70951 -10.69996 -10.66876 -10.64722 -10.64445
 Alpha  occ. eigenvalues --  -10.62288 -10.61529 -10.61497 -10.60777 -10.60592
 Alpha  occ. eigenvalues --  -10.60000 -10.58801 -10.57714 -10.56859 -10.56792
 Alpha  occ. eigenvalues --  -10.56777 -10.56666 -10.56309 -10.56262 -10.56232
 Alpha  occ. eigenvalues --  -10.56071 -10.55815 -10.55750 -10.55689 -10.55674
 Alpha  occ. eigenvalues --  -10.55673 -10.55488 -10.55439 -10.55370 -10.55360
 Alpha  occ. eigenvalues --  -10.55348 -10.55232 -10.55114 -10.55091 -10.55018
 Alpha  occ. eigenvalues --  -10.54208 -10.54152 -10.54028 -10.53903 -10.53802
 Alpha  occ. eigenvalues --  -10.53663 -10.52448 -10.52396 -10.52352 -10.52211
 Alpha  occ. eigenvalues --  -10.52092  -6.99655  -5.11462  -5.11391  -5.11335
 Alpha  occ. eigenvalues --   -1.48899  -1.42909  -1.39430  -1.39363  -1.38590
 Alpha  occ. eigenvalues --   -1.36618  -1.25164  -1.23599  -1.23521  -1.20574
 Alpha  occ. eigenvalues --   -1.19885  -1.18097  -1.16102  -1.13866  -1.09462
 Alpha  occ. eigenvalues --   -1.07470  -1.02436  -1.00236  -0.98277  -0.97130
 Alpha  occ. eigenvalues --   -0.95402  -0.94535  -0.93620  -0.93302  -0.90811
 Alpha  occ. eigenvalues --   -0.89380  -0.88801  -0.88675  -0.88533  -0.86799
 Alpha  occ. eigenvalues --   -0.86165  -0.85887  -0.84525  -0.84228  -0.82778
 Alpha  occ. eigenvalues --   -0.82594  -0.81652  -0.79758  -0.79500  -0.77850
 Alpha  occ. eigenvalues --   -0.77509  -0.77421  -0.77335  -0.77171  -0.75547
 Alpha  occ. eigenvalues --   -0.75229  -0.74916  -0.74507  -0.73089  -0.72347
 Alpha  occ. eigenvalues --   -0.71792  -0.71564  -0.71527  -0.71176  -0.70980
 Alpha  occ. eigenvalues --   -0.70076  -0.68014  -0.67714  -0.67352  -0.67007
 Alpha  occ. eigenvalues --   -0.66387  -0.65899  -0.65655  -0.65138  -0.64686
 Alpha  occ. eigenvalues --   -0.64467  -0.63883  -0.63563  -0.63116  -0.62769
 Alpha  occ. eigenvalues --   -0.62131  -0.61494  -0.61221  -0.60583  -0.59857
 Alpha  occ. eigenvalues --   -0.59410  -0.58630  -0.58517  -0.58177  -0.58067
 Alpha  occ. eigenvalues --   -0.57943  -0.56706  -0.56539  -0.56364  -0.56112
 Alpha  occ. eigenvalues --   -0.55695  -0.55550  -0.55378  -0.55215  -0.55074
 Alpha  occ. eigenvalues --   -0.54489  -0.54376  -0.54117  -0.54008  -0.53521
 Alpha  occ. eigenvalues --   -0.53431  -0.52797  -0.52726  -0.52363  -0.52234
 Alpha  occ. eigenvalues --   -0.51585  -0.51364  -0.50996  -0.50634  -0.50284
 Alpha  occ. eigenvalues --   -0.50095  -0.49914  -0.49731  -0.49366  -0.48860
 Alpha  occ. eigenvalues --   -0.48535  -0.48225  -0.48018  -0.47919  -0.47832
 Alpha  occ. eigenvalues --   -0.47697  -0.47513  -0.47292  -0.47069  -0.46747
 Alpha  occ. eigenvalues --   -0.46612  -0.46499  -0.46319  -0.46054  -0.45998
 Alpha  occ. eigenvalues --   -0.45809  -0.45324  -0.45076  -0.44812  -0.44657
 Alpha  occ. eigenvalues --   -0.44632  -0.44220  -0.43852  -0.43682  -0.43482
 Alpha  occ. eigenvalues --   -0.43272  -0.43027  -0.42749  -0.42184  -0.42069
 Alpha  occ. eigenvalues --   -0.41838  -0.41388  -0.41285  -0.41059  -0.40729
 Alpha  occ. eigenvalues --   -0.40474  -0.40079  -0.39927  -0.39852  -0.39598
 Alpha  occ. eigenvalues --   -0.39518  -0.39333  -0.38929  -0.38712  -0.38509
 Alpha  occ. eigenvalues --   -0.38408  -0.38383  -0.38061  -0.37536  -0.37225
 Alpha  occ. eigenvalues --   -0.36956  -0.36648  -0.36284  -0.35792  -0.34407
 Alpha  occ. eigenvalues --   -0.30812  -0.30575  -0.29748  -0.29543  -0.28630
 Alpha  occ. eigenvalues --   -0.28163  -0.27922  -0.26845  -0.25876
 Alpha virt. eigenvalues --   -0.06970  -0.01877  -0.00339   0.00454   0.01838
 Alpha virt. eigenvalues --    0.01946   0.02568   0.02817   0.03413   0.04058
 Alpha virt. eigenvalues --    0.05774   0.06153   0.06675   0.08407   0.09433
 Alpha virt. eigenvalues --    0.10186   0.11546   0.12435   0.12995   0.13192
 Alpha virt. eigenvalues --    0.13451   0.14071   0.14589   0.14856   0.15136
 Alpha virt. eigenvalues --    0.15751   0.16012   0.16103   0.16531   0.16605
 Alpha virt. eigenvalues --    0.17193   0.17262   0.17392   0.17642   0.17723
 Alpha virt. eigenvalues --    0.17966   0.18331   0.18571   0.18761   0.18887
 Alpha virt. eigenvalues --    0.18986   0.19315   0.19575   0.19789   0.19840
 Alpha virt. eigenvalues --    0.20069   0.20298   0.20602   0.20697   0.20772
 Alpha virt. eigenvalues --    0.21016   0.21238   0.21423   0.21809   0.22022
 Alpha virt. eigenvalues --    0.22284   0.22395   0.22778   0.22931   0.23064
 Alpha virt. eigenvalues --    0.23263   0.23703   0.24019   0.24312   0.24334
 Alpha virt. eigenvalues --    0.24636   0.25175   0.25378   0.25934   0.26132
 Alpha virt. eigenvalues --    0.26166   0.26317   0.26380   0.26539   0.26720
 Alpha virt. eigenvalues --    0.27246   0.27458   0.27597   0.27891   0.28485
 Alpha virt. eigenvalues --    0.28802   0.28958   0.29214   0.29674   0.29850
 Alpha virt. eigenvalues --    0.30464   0.30474   0.30824   0.31166   0.31224
 Alpha virt. eigenvalues --    0.31429   0.31633   0.31898   0.32165   0.32206
 Alpha virt. eigenvalues --    0.32409   0.32872   0.32975   0.33302   0.33965
 Alpha virt. eigenvalues --    0.33998   0.35201   0.35351   0.35929   0.36764
 Alpha virt. eigenvalues --    0.37364   0.37559   0.38053   0.38296   0.38453
 Alpha virt. eigenvalues --    0.39308   0.40110   0.40380   0.41166   0.41538
 Alpha virt. eigenvalues --    0.41823   0.42152   0.42446   0.42642   0.42928
 Alpha virt. eigenvalues --    0.43170   0.43986   0.44396   0.44706   0.45752
 Alpha virt. eigenvalues --    0.46239   0.46747   0.46927   0.47542   0.48494
 Alpha virt. eigenvalues --    0.49380   0.49838   0.50623   0.51267   0.51369
 Alpha virt. eigenvalues --    0.51534   0.52865   0.53028   0.53252   0.53689
 Alpha virt. eigenvalues --    0.54047   0.54172   0.54312   0.54475   0.54795
 Alpha virt. eigenvalues --    0.55025   0.55451   0.55530   0.55743   0.56253
 Alpha virt. eigenvalues --    0.56421   0.56656   0.56808   0.56869   0.57052
 Alpha virt. eigenvalues --    0.57422   0.57855   0.58326   0.58420   0.58725
 Alpha virt. eigenvalues --    0.58829   0.59077   0.59405   0.59590   0.59744
 Alpha virt. eigenvalues --    0.59787   0.60158   0.60403   0.60954   0.61017
 Alpha virt. eigenvalues --    0.61224   0.61463   0.61733   0.61860   0.62174
 Alpha virt. eigenvalues --    0.62400   0.62625   0.62734   0.63155   0.63407
 Alpha virt. eigenvalues --    0.63832   0.64216   0.64370   0.64806   0.64854
 Alpha virt. eigenvalues --    0.65019   0.65122   0.65378   0.65474   0.65934
 Alpha virt. eigenvalues --    0.66003   0.66270   0.66709   0.66938   0.67290
 Alpha virt. eigenvalues --    0.67348   0.67685   0.67968   0.68390   0.68640
 Alpha virt. eigenvalues --    0.68803   0.69115   0.69311   0.70177   0.70440
 Alpha virt. eigenvalues --    0.70582   0.71101   0.71338   0.71737   0.72089
 Alpha virt. eigenvalues --    0.72463   0.72933   0.73449   0.73779   0.74108
 Alpha virt. eigenvalues --    0.74424   0.74614   0.75017   0.75101   0.75236
 Alpha virt. eigenvalues --    0.75980   0.76321   0.76733   0.76911   0.77334
 Alpha virt. eigenvalues --    0.77969   0.78131   0.78512   0.78856   0.79082
 Alpha virt. eigenvalues --    0.79424   0.79548   0.79607   0.80078   0.80595
 Alpha virt. eigenvalues --    0.81042   0.81276   0.81587   0.82098   0.82279
 Alpha virt. eigenvalues --    0.82575   0.82776   0.83012   0.83273   0.83424
 Alpha virt. eigenvalues --    0.83592   0.84219   0.84367   0.84663   0.84834
 Alpha virt. eigenvalues --    0.85851   0.86048   0.86525   0.86927   0.87001
 Alpha virt. eigenvalues --    0.87093   0.87385   0.87743   0.87930   0.88373
 Alpha virt. eigenvalues --    0.88440   0.88732   0.88857   0.89158   0.89343
 Alpha virt. eigenvalues --    0.90006   0.90129   0.90445   0.90543   0.90664
 Alpha virt. eigenvalues --    0.91312   0.91683   0.92049   0.92190   0.92522
 Alpha virt. eigenvalues --    0.92656   0.92934   0.93068   0.93451   0.94019
 Alpha virt. eigenvalues --    0.94148   0.94403   0.94533   0.95146   0.95434
 Alpha virt. eigenvalues --    0.95593   0.96047   0.96174   0.96534   0.96759
 Alpha virt. eigenvalues --    0.96965   0.97352   0.97429   0.97579   0.97814
 Alpha virt. eigenvalues --    0.97927   0.98158   0.98500   0.98595   0.98939
 Alpha virt. eigenvalues --    0.99577   0.99649   1.00042   1.00236   1.00467
 Alpha virt. eigenvalues --    1.00815   1.01184   1.01556   1.01685   1.02278
 Alpha virt. eigenvalues --    1.02580   1.02772   1.03105   1.03690   1.03942
 Alpha virt. eigenvalues --    1.04533   1.04807   1.05233   1.05465   1.05834
 Alpha virt. eigenvalues --    1.06072   1.06787   1.06982   1.07235   1.08252
 Alpha virt. eigenvalues --    1.08361   1.08613   1.08777   1.08882   1.09319
 Alpha virt. eigenvalues --    1.09539   1.09695   1.09960   1.10654   1.10838
 Alpha virt. eigenvalues --    1.11694   1.11906   1.12439   1.12750   1.13172
 Alpha virt. eigenvalues --    1.13415   1.13863   1.14090   1.14447   1.14708
 Alpha virt. eigenvalues --    1.15163   1.15372   1.15583   1.16349   1.16707
 Alpha virt. eigenvalues --    1.17611   1.17744   1.17770   1.18877   1.19161
 Alpha virt. eigenvalues --    1.19253   1.19611   1.19916   1.20564   1.20693
 Alpha virt. eigenvalues --    1.21338   1.21785   1.22238   1.22531   1.22933
 Alpha virt. eigenvalues --    1.23485   1.23949   1.24149   1.25025   1.25257
 Alpha virt. eigenvalues --    1.25775   1.26129   1.26600   1.26886   1.27361
 Alpha virt. eigenvalues --    1.27496   1.27644   1.27844   1.28244   1.28741
 Alpha virt. eigenvalues --    1.29281   1.29722   1.29957   1.30423   1.30737
 Alpha virt. eigenvalues --    1.30948   1.31001   1.32303   1.32527   1.33070
 Alpha virt. eigenvalues --    1.33115   1.33572   1.34204   1.34710   1.35171
 Alpha virt. eigenvalues --    1.36121   1.36535   1.36819   1.37002   1.37437
 Alpha virt. eigenvalues --    1.38000   1.38191   1.38343   1.38860   1.39042
 Alpha virt. eigenvalues --    1.39408   1.39673   1.40207   1.40406   1.40468
 Alpha virt. eigenvalues --    1.40744   1.41008   1.41335   1.41694   1.41948
 Alpha virt. eigenvalues --    1.42495   1.42736   1.43121   1.43284   1.43393
 Alpha virt. eigenvalues --    1.43471   1.43874   1.44098   1.44236   1.44506
 Alpha virt. eigenvalues --    1.44759   1.45324   1.45559   1.45989   1.46122
 Alpha virt. eigenvalues --    1.46569   1.47232   1.47670   1.48315   1.48669
 Alpha virt. eigenvalues --    1.48793   1.49143   1.49522   1.49907   1.50702
 Alpha virt. eigenvalues --    1.50858   1.51074   1.51689   1.52287   1.53384
 Alpha virt. eigenvalues --    1.53885   1.54288   1.54972   1.55241   1.55600
 Alpha virt. eigenvalues --    1.55993   1.56230   1.57562   1.58416   1.58778
 Alpha virt. eigenvalues --    1.59449   1.60157   1.60652   1.61468   1.62310
 Alpha virt. eigenvalues --    1.62625   1.63783   1.64512   1.64571   1.65472
 Alpha virt. eigenvalues --    1.65842   1.66063   1.67259   1.67544   1.68082
 Alpha virt. eigenvalues --    1.68669   1.69226   1.70509   1.70595   1.70672
 Alpha virt. eigenvalues --    1.70921   1.71421   1.72139   1.72612   1.73417
 Alpha virt. eigenvalues --    1.73905   1.74031   1.74436   1.74892   1.75299
 Alpha virt. eigenvalues --    1.75374   1.75850   1.76121   1.76584   1.76773
 Alpha virt. eigenvalues --    1.77166   1.77822   1.77852   1.78461   1.78784
 Alpha virt. eigenvalues --    1.78906   1.79033   1.79413   1.79641   1.79758
 Alpha virt. eigenvalues --    1.80494   1.80680   1.80881   1.80945   1.81388
 Alpha virt. eigenvalues --    1.81852   1.82263   1.82595   1.82845   1.83068
 Alpha virt. eigenvalues --    1.83236   1.83362   1.83525   1.83982   1.84253
 Alpha virt. eigenvalues --    1.84437   1.84853   1.85168   1.85327   1.85482
 Alpha virt. eigenvalues --    1.85577   1.85944   1.86255   1.86431   1.86798
 Alpha virt. eigenvalues --    1.86947   1.87142   1.87253   1.87369   1.87905
 Alpha virt. eigenvalues --    1.88687   1.88754   1.89042   1.89227   1.89752
 Alpha virt. eigenvalues --    1.89950   1.90064   1.90492   1.90643   1.91045
 Alpha virt. eigenvalues --    1.91117   1.91637   1.91705   1.92127   1.92556
 Alpha virt. eigenvalues --    1.92626   1.93068   1.93428   1.93638   1.94020
 Alpha virt. eigenvalues --    1.94198   1.94599   1.94791   1.95384   1.95814
 Alpha virt. eigenvalues --    1.96771   1.97418   1.97431   1.97718   1.97783
 Alpha virt. eigenvalues --    1.98139   1.98270   1.98683   1.99550   1.99828
 Alpha virt. eigenvalues --    1.99909   2.00541   2.00894   2.01098   2.01443
 Alpha virt. eigenvalues --    2.01738   2.01894   2.02741   2.02786   2.03138
 Alpha virt. eigenvalues --    2.03375   2.03559   2.04166   2.04215   2.04614
 Alpha virt. eigenvalues --    2.04715   2.04960   2.05465   2.05675   2.05971
 Alpha virt. eigenvalues --    2.06215   2.06451   2.06525   2.06920   2.07518
 Alpha virt. eigenvalues --    2.08024   2.08258   2.08448   2.08603   2.09125
 Alpha virt. eigenvalues --    2.09218   2.09998   2.10121   2.10456   2.10566
 Alpha virt. eigenvalues --    2.10862   2.10960   2.11106   2.11791   2.11924
 Alpha virt. eigenvalues --    2.12136   2.12586   2.12819   2.12984   2.13243
 Alpha virt. eigenvalues --    2.13484   2.13647   2.14055   2.14355   2.14993
 Alpha virt. eigenvalues --    2.15190   2.15367   2.15631   2.15769   2.15958
 Alpha virt. eigenvalues --    2.16256   2.16288   2.16628   2.16754   2.16906
 Alpha virt. eigenvalues --    2.17357   2.17971   2.18130   2.18528   2.18639
 Alpha virt. eigenvalues --    2.19020   2.19232   2.19622   2.20165   2.20599
 Alpha virt. eigenvalues --    2.20927   2.21491   2.21830   2.21962   2.22261
 Alpha virt. eigenvalues --    2.22750   2.22945   2.23857   2.23962   2.24598
 Alpha virt. eigenvalues --    2.24908   2.25241   2.25610   2.25712   2.26103
 Alpha virt. eigenvalues --    2.26351   2.26390   2.26980   2.27108   2.27583
 Alpha virt. eigenvalues --    2.28195   2.28514   2.28773   2.29518   2.29956
 Alpha virt. eigenvalues --    2.30139   2.30859   2.31189   2.31888   2.32075
 Alpha virt. eigenvalues --    2.32387   2.32469   2.32910   2.33096   2.33705
 Alpha virt. eigenvalues --    2.34171   2.34818   2.35699   2.36294   2.36990
 Alpha virt. eigenvalues --    2.37328   2.37838   2.38461   2.38740   2.39608
 Alpha virt. eigenvalues --    2.39677   2.39810   2.40345   2.40559   2.40694
 Alpha virt. eigenvalues --    2.41273   2.41461   2.41588   2.41888   2.42323
 Alpha virt. eigenvalues --    2.42711   2.43042   2.43361   2.43982   2.44089
 Alpha virt. eigenvalues --    2.44161   2.44612   2.45100   2.45241   2.46153
 Alpha virt. eigenvalues --    2.46631   2.46809   2.47119   2.47221   2.47691
 Alpha virt. eigenvalues --    2.47945   2.48306   2.48717   2.49132   2.49276
 Alpha virt. eigenvalues --    2.50249   2.50875   2.51334   2.51890   2.52021
 Alpha virt. eigenvalues --    2.52493   2.52952   2.53338   2.53600   2.54147
 Alpha virt. eigenvalues --    2.54556   2.55001   2.55267   2.55511   2.56098
 Alpha virt. eigenvalues --    2.56195   2.56551   2.57545   2.57811   2.58348
 Alpha virt. eigenvalues --    2.58775   2.59204   2.60035   2.60220   2.60276
 Alpha virt. eigenvalues --    2.60549   2.60994   2.61328   2.61757   2.62074
 Alpha virt. eigenvalues --    2.62225   2.62343   2.63483   2.63584   2.64060
 Alpha virt. eigenvalues --    2.64472   2.64695   2.64869   2.65240   2.65485
 Alpha virt. eigenvalues --    2.65942   2.66239   2.66618   2.67040   2.67523
 Alpha virt. eigenvalues --    2.68103   2.68213   2.68615   2.68715   2.69220
 Alpha virt. eigenvalues --    2.69266   2.69619   2.70399   2.70498   2.70756
 Alpha virt. eigenvalues --    2.71206   2.71845   2.72147   2.72282   2.72438
 Alpha virt. eigenvalues --    2.73086   2.73580   2.73947   2.74057   2.74182
 Alpha virt. eigenvalues --    2.75138   2.75434   2.76529   2.76918   2.76975
 Alpha virt. eigenvalues --    2.77978   2.78204   2.78277   2.79059   2.79228
 Alpha virt. eigenvalues --    2.79337   2.79537   2.80023   2.80310   2.80633
 Alpha virt. eigenvalues --    2.81130   2.81533   2.81747   2.82064   2.82584
 Alpha virt. eigenvalues --    2.82839   2.83036   2.83226   2.83876   2.84409
 Alpha virt. eigenvalues --    2.84910   2.85648   2.86360   2.86666   2.87266
 Alpha virt. eigenvalues --    2.87444   2.87906   2.88371   2.88581   2.89122
 Alpha virt. eigenvalues --    2.89454   2.89634   2.90207   2.90353   2.90705
 Alpha virt. eigenvalues --    2.90753   2.91030   2.91674   2.92371   2.92871
 Alpha virt. eigenvalues --    2.92904   2.93858   2.94186   2.94296   2.94616
 Alpha virt. eigenvalues --    2.96013   2.96359   2.96891   2.97779   2.99261
 Alpha virt. eigenvalues --    2.99661   3.00426   3.01659   3.01825   3.02187
 Alpha virt. eigenvalues --    3.02644   3.03920   3.04743   3.05067   3.06957
 Alpha virt. eigenvalues --    3.07904   3.08049   3.08607   3.09074   3.09707
 Alpha virt. eigenvalues --    3.10216   3.10675   3.11511   3.12791   3.13097
 Alpha virt. eigenvalues --    3.14717   3.16085   3.16951   3.17255   3.17735
 Alpha virt. eigenvalues --    3.18050   3.18976   3.19812   3.20741   3.21147
 Alpha virt. eigenvalues --    3.21610   3.21861   3.22086   3.22374   3.22810
 Alpha virt. eigenvalues --    3.23914   3.24289   3.25817   3.26800   3.26943
 Alpha virt. eigenvalues --    3.27278   3.27575   3.28710   3.29483   3.29781
 Alpha virt. eigenvalues --    3.29990   3.30566   3.30875   3.31851   3.32191
 Alpha virt. eigenvalues --    3.33771   3.34319   3.36966   3.39835   3.41258
 Alpha virt. eigenvalues --    3.41793   3.42152   3.43676   3.43924   3.44220
 Alpha virt. eigenvalues --    3.44538   3.44847   3.45035   3.45558   3.45740
 Alpha virt. eigenvalues --    3.45950   3.46155   3.46491   3.46825   3.47220
 Alpha virt. eigenvalues --    3.47654   3.47995   3.49602   3.50026   3.50342
 Alpha virt. eigenvalues --    3.51038   3.57021   3.59233   3.62575   3.67457
 Alpha virt. eigenvalues --    3.67982   3.69874   3.71161   3.73530   3.74999
 Alpha virt. eigenvalues --    3.75185   3.86748   3.96463   4.07299   4.09502
 Alpha virt. eigenvalues --    4.12494   4.13249   4.15078   4.16328   4.17458
 Alpha virt. eigenvalues --    4.18065   4.19881   4.21492   4.22610   4.23729
 Alpha virt. eigenvalues --    4.23794   4.24354   4.24821   4.25179   4.26228
 Alpha virt. eigenvalues --    4.27361   4.28493   4.34391   4.34824   4.35672
 Alpha virt. eigenvalues --    4.36621   4.38043   4.39386   4.40813   4.41361
 Alpha virt. eigenvalues --    4.42417   4.43290   4.44090   4.45529   4.45853
 Alpha virt. eigenvalues --    4.47893   4.49218   4.49651   4.49785   4.51982
 Alpha virt. eigenvalues --    4.52955   4.55041   4.58361   4.59626   4.60500
 Alpha virt. eigenvalues --    4.61037   4.62894   4.63240   4.64153   4.64651
 Alpha virt. eigenvalues --    4.66130   4.71880   4.72605   4.83187   4.84098
 Alpha virt. eigenvalues --    4.84568   4.85818   4.86935   4.89356   4.94014
 Alpha virt. eigenvalues --    4.96629   4.99676   5.29450   5.33412   5.71610
          Condensed to atoms (all electrons):
 Mulliken charges:
               1
     1  O   -0.534889
     2  N   -0.564269
     3  O   -0.540357
     4  O   -0.595768
     5  C   -0.329530
     6  N    0.401552
     7  C    0.205665
     8  C    0.662572
     9  C   -0.000041
    10  C   -0.182965
    11  C    0.596423
    12  C   -0.120834
    13  C    0.327090
    14  C   -0.124477
    15  C   -0.114281
    16  O   -0.383365
    17  O   -0.386664
    18  H    0.441399
    19  H    0.295899
    20  H    0.434676
    21  H    0.124067
    22  H    0.161250
    23  H    0.128067
    24  H    0.175867
    25  H    0.123921
    26  H    0.188869
    27  O   -0.645300
    28  O   -0.623775
    29  C   -0.412449
    30  O   -0.626522
    31  C   -0.410861
    32  C   -0.418724
    33  O   -0.675553
    34  C   -0.393328
    35  C   -0.411847
    36  C   -0.398041
    37  C   -0.176921
    38  C    0.134501
    39  C   -0.148111
    40  C   -0.195675
    41  C    0.109811
    42  C    0.139137
    43  C   -0.061757
    44  C    0.212672
    45  C   -0.150585
    46  C    0.102081
    47  C   -0.211000
    48  C    0.091951
    49  C    0.030274
    50  C   -0.146960
    51  C   -0.006013
    52  C    0.215800
    53  C   -0.266410
    54  C    0.001499
    55  C   -0.147088
    56  C   -0.044890
    57  C    0.027402
    58  C   -0.199121
    59  C   -0.143474
    60  C    0.105914
    61  C   -0.241681
    62  C    0.081362
    63  C    0.109387
    64  C   -0.211005
    65  C   -0.266475
    66  P    1.329114
    67  H    0.377888
    68  H    0.124574
    69  H    0.162028
    70  H    0.120175
    71  H    0.158103
    72  H    0.120510
    73  H    0.129574
    74  H    0.146164
    75  H    0.133676
    76  H    0.128079
    77  H    0.138131
    78  H    0.174965
    79  H    0.105698
    80  H    0.139064
    81  H    0.171868
    82  H    0.123766
    83  H    0.119757
    84  H    0.122390
    85  H    0.159486
    86  H    0.097707
    87  H    0.120334
    88  H    0.095393
    89  H    0.138853
    90  H    0.117388
    91  H    0.128149
    92  H    0.138775
    93  H    0.135499
    94  H    0.123267
    95  H    0.108991
    96  H    0.127719
    97  H    0.100998
    98  H    0.114981
    99  H    0.136733
   100  H    0.138337
   101  H    0.133947
   102  O   -0.550399
   103  C   -0.024016
   104  H    0.179029
   105  H    0.140629
   106  C    0.524247
   107  C    0.800656
   108  F   -0.277591
   109  F   -0.271264
   110  F   -0.265289
   111  F   -0.264305
   112  F   -0.251884
 Sum of Mulliken charges =  -0.00000
 Mulliken charges with hydrogens summed into heavy atoms:
               1
     1  O   -0.093489
     2  N   -0.268370
     3  O   -0.105681
     4  O   -0.595768
     5  C    0.083853
     6  N    0.401552
     7  C    0.205665
     8  C    0.662572
     9  C   -0.000041
    10  C   -0.182965
    11  C    0.596423
    12  C    0.055033
    13  C    0.327090
    14  C   -0.000556
    15  C    0.074589
    16  O   -0.383365
    17  O   -0.386664
    27  O   -0.267412
    28  O   -0.623775
    29  C   -0.005673
    30  O   -0.626522
    31  C   -0.002673
    32  C   -0.010804
    33  O   -0.675553
    34  C    0.025465
    35  C    0.022851
    36  C    0.003592
    37  C   -0.079214
    38  C    0.134501
    39  C   -0.027778
    40  C   -0.100282
    41  C    0.109811
    42  C    0.139137
    43  C   -0.061757
    44  C    0.212672
    45  C   -0.150585
    46  C    0.102081
    47  C    0.045241
    48  C    0.091951
    49  C    0.030274
    50  C   -0.018811
    51  C   -0.006013
    52  C    0.215800
    53  C    0.007864
    54  C    0.001499
    55  C   -0.023821
    56  C   -0.044890
    57  C    0.027402
    58  C   -0.090130
    59  C   -0.015755
    60  C    0.105914
    61  C   -0.140683
    62  C    0.081362
    63  C    0.109387
    64  C    0.040709
    65  C    0.005810
    66  P    1.329114
   102  O   -0.550399
   103  C    0.295642
   106  C    0.524247
   107  C    0.800656
   108  F   -0.277591
   109  F   -0.271264
   110  F   -0.265289
   111  F   -0.264305
   112  F   -0.251884
 APT charges:
               1
     1  O    0.077502
     2  N   -0.508978
     3  O    0.025028
     4  O    0.140140
     5  C   -1.046056
     6  N   -1.035193
     7  C    0.902793
     8  C   -0.203733
     9  C   -0.655478
    10  C   -0.377645
    11  C   -0.250018
    12  C   -0.504489
    13  C    0.065718
    14  C   -0.601893
    15  C   -0.361573
    16  O    0.460114
    17  O    0.297667
    18  H    0.257299
    19  H    0.170392
    20  H    0.437743
    21  H    0.495503
    22  H    0.449055
    23  H    0.125986
    24  H    0.554347
    25  H   -0.120254
    26  H    1.284238
    27  O   -0.810219
    28  O   -0.119926
    29  C   -1.328511
    30  O   -0.374474
    31  C   -1.164922
    32  C   -1.399295
    33  O   -0.399363
    34  C   -1.082125
    35  C   -1.317722
    36  C   -1.100292
    37  C   -0.489767
    38  C   -0.524525
    39  C   -0.397637
    40  C   -0.435914
    41  C    0.152607
    42  C    0.182396
    43  C   -0.351980
    44  C   -0.598298
    45  C   -0.015828
    46  C   -0.139579
    47  C   -1.196436
    48  C   -0.063189
    49  C    0.466625
    50  C   -0.400070
    51  C   -0.667144
    52  C   -0.286316
    53  C   -1.575374
    54  C   -0.573167
    55  C   -0.506375
    56  C   -0.255046
    57  C    0.725664
    58  C   -0.469268
    59  C   -0.509080
    60  C    0.018716
    61  C   -0.569613
    62  C   -0.214701
    63  C    0.111096
    64  C   -0.580692
    65  C   -2.025541
    66  P    0.637515
    67  H    0.285749
    68  H    0.958492
    69  H   -0.285775
    70  H    0.769914
    71  H   -0.336633
    72  H    0.773930
    73  H    0.811344
    74  H    0.784704
    75  H    0.425459
    76  H    0.226187
    77  H    0.667732
    78  H    0.201345
    79  H    0.297751
    80  H    0.586582
    81  H    0.180013
    82  H    0.670895
    83  H    0.352896
    84  H    1.061882
    85  H   -0.240701
    86  H    0.556026
    87  H    1.416012
    88  H    0.573749
    89  H    0.033443
    90  H    1.137788
    91  H    1.034369
    92  H    0.644192
    93  H    0.921660
    94  H    0.978396
    95  H    0.683353
    96  H    0.411498
    97  H    0.401345
    98  H    0.796846
    99  H   -0.112047
   100  H    0.786936
   101  H    1.047927
   102  O   -0.230014
   103  C   -0.768105
   104  H    0.962513
   105  H   -0.155052
   106  C   -0.326885
   107  C   -0.128812
   108  F   -0.472682
   109  F    0.442135
   110  F    0.457678
   111  F   -0.641812
   112  F    0.927335
 Sum of APT charges =  -0.00000
 APT charges with hydrogens summed into heavy atoms:
               1
     1  O    0.334801
     2  N   -0.338586
     3  O    0.462771
     4  O    0.140140
     5  C    0.024488
     6  N   -1.035193
     7  C    0.902793
     8  C   -0.203733
     9  C   -0.655478
    10  C   -0.377645
    11  C   -0.250018
    12  C    0.049857
    13  C    0.065718
    14  C   -0.722147
    15  C    0.922665
    16  O    0.460114
    17  O    0.297667
    27  O   -0.524470
    28  O   -0.119926
    29  C    0.114119
    30  O   -0.374474
    31  C    0.083719
    32  C    0.037055
    33  O   -0.399363
    34  C    0.084702
    35  C    0.119768
    36  C    0.073784
    37  C    0.066259
    38  C   -0.524525
    39  C    1.018375
    40  C    0.137835
    41  C    0.152607
    42  C    0.182396
    43  C   -0.351980
    44  C   -0.598298
    45  C   -0.015828
    46  C   -0.139579
    47  C   -0.025205
    48  C   -0.063189
    49  C    0.466625
    50  C    0.634299
    51  C   -0.667144
    52  C   -0.286316
    53  C   -0.009522
    54  C   -0.573167
    55  C    0.472021
    56  C   -0.255046
    57  C    0.725664
    58  C    0.214084
    59  C   -0.097583
    60  C    0.018716
    61  C   -0.168268
    62  C   -0.214701
    63  C    0.111096
    64  C    0.104107
    65  C   -0.190678
    66  P    0.637515
   102  O   -0.230014
   103  C    0.039356
   106  C   -0.326885
   107  C   -0.128812
   108  F   -0.472682
   109  F    0.442135
   110  F    0.457678
   111  F   -0.641812
   112  F    0.927335
 Electronic spatial extent (au):  <R**2>=          60700.9497
 Charge=             -0.0000 electrons
 Dipole moment (field-independent basis, Debye):
    X=              1.8884    Y=             -2.6252    Z=             -0.4154  Tot=              3.2604
 Quadrupole moment (field-independent basis, Debye-Ang):
   XX=           -404.5547   YY=           -378.4679   ZZ=           -379.4325
   XY=            -33.3538   XZ=             18.7301   YZ=              0.0540
 Traceless Quadrupole moment (field-independent basis, Debye-Ang):
   XX=            -17.0696   YY=              9.0171   ZZ=              8.0525
   XY=            -33.3538   XZ=             18.7301   YZ=              0.0540
 Octapole moment (field-independent basis, Debye-Ang**2):
  XXX=            229.7546  YYY=            -64.9845  ZZZ=            -57.2266  XYY=            -77.3500
  XXY=            -68.7248  XXZ=           -175.5383  XZZ=            -38.6169  YZZ=            -19.9174
  YYZ=             39.5625  XYZ=            -19.6865
 Hexadecapole moment (field-independent basis, Debye-Ang**3):
 XXXX=         -58002.5377 YYYY=         -16226.1455 ZZZZ=          -5949.7920 XXXY=           -821.8896
 XXXZ=           1314.1480 YYYX=            -28.3926 YYYZ=            155.1621 ZZZX=            548.6649
 ZZZY=             20.8327 XXYY=         -11681.9250 XXZZ=         -10530.0285 YYZZ=          -3413.7817
 XXYZ=           -116.5645 YYXZ=             82.7552 ZZXY=            133.7785
 N-N= 1.127192441791D+04 E-N=-3.086663313595D+04  KE= 3.530890470643D+03
  Exact polarizability:       0.000       0.000       0.000       0.000       0.000       0.000
 Approx polarizability:     724.545     -41.412     700.726     -42.984      13.128     669.739
 Calling FoFJK, ICntrl=    100127 FMM=F ISym2X=0 I1Cent= 0 IOpClX= 0 NMat=1 NMatS=1 NMatT=0.
 -------------------------------------------------------------------
 Center     Atomic                   Forces (Hartrees/Bohr)
 Number     Number              X              Y              Z
 -------------------------------------------------------------------
      1        8           0.000006922   -0.000000500   -0.000003690
      2        7           0.000005597   -0.000012462   -0.000002139
      3        8          -0.000001766   -0.000001577    0.000001055
      4        8           0.000000787   -0.000003864    0.000000768
      5        6          -0.000005923    0.000004543    0.000001495
      6        7           0.000001059   -0.000006530    0.000007469
      7        6          -0.000005496   -0.000003236   -0.000003252
      8        6          -0.000006513    0.000001476    0.000007423
      9        6          -0.000002950   -0.000003167   -0.000002080
     10        6          -0.000000729    0.000002724    0.000000519
     11        6          -0.000006217    0.000008674    0.000005033
     12        6           0.000001219   -0.000004640   -0.000002403
     13        6          -0.000006302   -0.000004220   -0.000008639
     14        6          -0.000000545    0.000000600    0.000003445
     15        6           0.000001777    0.000003962    0.000004219
     16        8          -0.000000040   -0.000000366   -0.000005145
     17        8           0.000006047   -0.000000324   -0.000008439
     18        1          -0.000000769   -0.000000298    0.000000609
     19        1           0.000000859    0.000005852   -0.000002821
     20        1           0.000001164    0.000000662   -0.000000129
     21        1           0.000002606   -0.000000299    0.000001346
     22        1           0.000003652    0.000000022   -0.000001620
     23        1           0.000000350   -0.000001486   -0.000000129
     24        1           0.000001126    0.000003023    0.000002130
     25        1          -0.000001069    0.000001876   -0.000000092
     26        1           0.000000092   -0.000001388   -0.000000716
     27        8          -0.000002107    0.000000698    0.000001168
     28        8           0.000000169   -0.000001130    0.000003672
     29        6           0.000002897   -0.000000617    0.000003738
     30        8           0.000000068    0.000003731   -0.000000836
     31        6           0.000002638   -0.000001498    0.000006819
     32        6           0.000001098   -0.000003609   -0.000004038
     33        8           0.000000237   -0.000000812    0.000005086
     34        6          -0.000003776    0.000001375   -0.000002718
     35        6           0.000003547   -0.000003022    0.000000395
     36        6          -0.000002283   -0.000001175   -0.000000200
     37        6          -0.000000225    0.000000423   -0.000000510
     38        6          -0.000001591   -0.000002383   -0.000000661
     39        6          -0.000004860    0.000000535    0.000003373
     40        6          -0.000000176   -0.000003549    0.000004558
     41        6          -0.000002284    0.000005581    0.000004791
     42        6           0.000001110   -0.000000874    0.000003048
     43        6           0.000001605    0.000005804    0.000000401
     44        6           0.000000582    0.000004539   -0.000002521
     45        6           0.000003013   -0.000001145    0.000001270
     46        6          -0.000000893   -0.000001753   -0.000008136
     47        6           0.000005600   -0.000005263   -0.000004221
     48        6           0.000002251   -0.000003832    0.000006806
     49        6           0.000003024   -0.000000427    0.000000293
     50        6           0.000000003   -0.000000050    0.000001924
     51        6          -0.000003743   -0.000001619   -0.000002321
     52        6          -0.000003312   -0.000000738    0.000000480
     53        6          -0.000002060   -0.000001980    0.000004392
     54        6           0.000001771   -0.000002822    0.000000825
     55        6           0.000007481   -0.000002168    0.000001920
     56        6           0.000008193   -0.000002842    0.000002286
     57        6          -0.000006847   -0.000001039   -0.000002685
     58        6          -0.000001455    0.000003663    0.000004502
     59        6          -0.000007223    0.000001919   -0.000004550
     60        6          -0.000005471    0.000002807   -0.000003483
     61        6          -0.000005178    0.000001599    0.000001370
     62        6          -0.000000469    0.000001052    0.000001796
     63        6           0.000004418   -0.000002444   -0.000000074
     64        6          -0.000003571   -0.000002537    0.000001274
     65        6           0.000002761   -0.000000991   -0.000005753
     66       15           0.000000266   -0.000000566   -0.000007713
     67        1           0.000001355   -0.000001597    0.000000538
     68        1          -0.000000218   -0.000000195    0.000001149
     69        1          -0.000001235   -0.000000219    0.000002498
     70        1           0.000000624   -0.000001197    0.000000692
     71        1          -0.000000502    0.000000152    0.000001304
     72        1          -0.000000171   -0.000002400    0.000000002
     73        1          -0.000002141   -0.000000744    0.000000431
     74        1          -0.000000296    0.000002885    0.000001432
     75        1          -0.000001822    0.000000457   -0.000000052
     76        1          -0.000000084    0.000003395   -0.000002559
     77        1          -0.000000620   -0.000002125    0.000000504
     78        1           0.000001448    0.000000358   -0.000000134
     79        1           0.000001693   -0.000002013   -0.000000856
     80        1          -0.000000577    0.000001811   -0.000002129
     81        1           0.000000181    0.000000405   -0.000000899
     82        1          -0.000000019    0.000001721   -0.000001592
     83        1           0.000002342    0.000000333    0.000001906
     84        1           0.000001130   -0.000000005    0.000001650
     85        1           0.000001312    0.000003486    0.000000232
     86        1          -0.000000017    0.000001716   -0.000000443
     87        1           0.000002469   -0.000000438   -0.000001076
     88        1          -0.000000789    0.000000897    0.000002322
     89        1          -0.000000793    0.000002930    0.000002389
     90        1          -0.000004913    0.000001007   -0.000000384
     91        1           0.000000012    0.000001612    0.000000481
     92        1          -0.000000056   -0.000001405   -0.000004194
     93        1           0.000000270   -0.000001070   -0.000000724
     94        1          -0.000000332    0.000000016   -0.000002590
     95        1          -0.000000115   -0.000000822   -0.000005396
     96        1           0.000003155    0.000000357   -0.000001897
     97        1           0.000002060   -0.000002362   -0.000001804
     98        1           0.000000034    0.000001415   -0.000001656
     99        1           0.000001439    0.000000462    0.000000107
    100        1          -0.000000930    0.000001327    0.000001127
    101        1          -0.000000326    0.000000053    0.000001737
    102        8           0.000011774    0.000011527    0.000010937
    103        6          -0.000009493    0.000003275    0.000006130
    104        1           0.000002592   -0.000001388   -0.000002005
    105        1           0.000001436   -0.000000518   -0.000004162
    106        6          -0.000003462    0.000006053   -0.000002490
    107        6           0.000000269   -0.000002403   -0.000004252
    108        9           0.000001880   -0.000003799   -0.000000860
    109        9           0.000000358    0.000001080   -0.000002375
    110        9          -0.000000141   -0.000000131    0.000000527
    111        9           0.000002016    0.000003016   -0.000002226
    112        9          -0.000000947    0.000001187   -0.000001326
 -------------------------------------------------------------------
 Cartesian Forces:  Max     0.000012462 RMS     0.000003206
 IRC-IRC-IRC-IRC-IRC-IRC-IRC-IRC-IRC-IRC-IRC-IRC-IRC-IRC-IRC-IRC-IRC-IRC
          ******** Start new reaction path calculation ********
 Supplied step size of   0.0500 bohr.
    Integration on MW PES will use step size of   0.0590 sqrt(amu)*bohr.
 Point Number:   0          Path Number:   1
 Calculating another point on the path.
 IRC-IRC-IRC-IRC-IRC-IRC-IRC-IRC-IRC-IRC-IRC-IRC-IRC-IRC-IRC-IRC-IRC-IRC
 Symmetry turned off by external request.
 Stoichiometry    C48H46F5N2O10P
 Framework group  C1[X(C48H46F5N2O10P)]
 Deg. of freedom   330
 Full point group                 C1      NOp   1
                          Input orientation:                          
 ---------------------------------------------------------------------
 Center     Atomic      Atomic             Coordinates (Angstroms)
 Number     Number       Type             X           Y           Z
 ---------------------------------------------------------------------
      1          8           0        1.967953    3.000051   -1.455447
      2          7           0       -1.201307    1.858601    0.053811
      3          8           0        0.627198    4.145080   -0.198423
      4          8           0       -1.794837    4.063308    0.212830
      5          6           0       -0.082438    0.938361   -1.909113
      6          7           0       -7.177047    1.609731    2.563646
      7          6           0       -5.845548    1.869335    2.001629
      8          6           0        0.855946    3.025382   -0.796672
      9          6           0       -3.359860    2.464094    0.953898
     10          6           0        0.052226    1.843961   -0.688062
     11          6           0       -2.037679    2.851494    0.364627
     12          6           0       -3.923976    3.302375    1.917417
     13          6           0       -5.299779    1.025051    1.031005
     14          6           0       -4.046272    1.337178    0.510816
     15          6           0       -5.161034    2.989791    2.459457
     16          8           0       -7.370857    1.972874    3.707237
     17          8           0       -8.000031    1.076246    1.843432
     18          1           0        2.381156    2.062061   -1.579368
     19          1           0       -1.492601    0.920237    0.317063
     20          1           0       -0.379087    4.225449    0.024373
     21          1           0       -0.951616    1.226148   -2.511048
     22          1           0        0.809425    0.975809   -2.533230
     23          1           0       -0.211582   -0.102926   -1.590908
     24          1           0       -3.384752    4.190167    2.226458
     25          1           0       -3.632779    0.687858   -0.255444
     26          1           0       -5.619820    3.599308    3.228830
     27          8           0        1.698836    0.313273    0.648258
     28          8           0        4.167605    0.060851    0.704055
     29          6           0        3.858190    6.197660   -0.288239
     30          8           0        2.825079   -1.624835   -0.640958
     31          6           0        5.835014    2.235600    2.100333
     32          6           0       -3.665633   -1.670645   -1.614418
     33          8           0        3.000606    0.707164   -1.544645
     34          6           0       -0.529735   -1.329780    2.305796
     35          6           0        0.936277   -3.677393   -1.965321
     36          6           0        5.395368    2.249425   -2.971568
     37          6           0        4.746173    4.211076   -1.553355
     38          6           0        5.859896   -1.500846    0.049882
     39          6           0        7.761913   -0.769564   -1.252554
     40          6           0        4.910321    4.193371    0.830701
     41          6           0        4.537007    4.854914   -0.335487
     42          6           0        3.871295   -2.974002    1.047004
     43          6           0        5.602378    2.257322   -0.431242
     44          6           0        5.399765   -0.194844    0.098448
     45          6           0        5.337379   -2.758162    0.715633
     46          6           0        5.442892    2.903964    0.805643
     47          6           0        5.972580   -2.956024    2.122011
     48          6           0        5.263229    2.920510   -1.625684
     49          6           0        7.020779   -1.789940   -0.672640
     50          6           0        7.316327    0.544822   -1.129128
     51          6           0        1.449325   -2.941561    0.835370
     52          6           0        2.718770   -2.524968    0.415739
     53          6           0        5.114879   -4.050691    2.780020
     54          6           0        6.117239    0.859749   -0.480273
     55          6           0        2.512684   -4.235637    2.607185
     56          6           0        0.189392   -2.508432    0.162740
     57          6           0        3.755091   -3.796222    2.172460
     58          6           0       -1.323097   -2.612491   -1.721565
     59          6           0        1.374992   -3.821235    1.921686
     60          6           0       -0.079256   -2.908554   -1.159595
     61          6           0       -2.024234   -1.551269    0.301970
     62          6           0       -0.784044   -1.803524    0.894686
     63          6           0       -2.315311   -1.948337   -1.004501
     64          6           0        5.883417   -3.837162   -0.261923
     65          6           0        7.248491   -3.284305   -0.715571
     66         15           0        2.880303   -0.052429   -0.260300
     67          1           0        0.951058    1.075909    0.105656
     68          1           0        4.167148    6.831334   -1.123730
     69          1           0        2.773337    6.061567   -0.354644
     70          1           0        4.076603    6.724475    0.643848
     71          1           0        5.088380    1.493519    2.399721
     72          1           0        5.919340    2.973823    2.900922
     73          1           0        6.794286    1.718540    2.007261
     74          1           0       -3.976152   -2.477956   -2.282298
     75          1           0       -4.425638   -1.567231   -0.836550
     76          1           0       -3.647102   -0.749417   -2.212329
     77          1           0       -0.642590   -2.140036    3.032326
     78          1           0        0.481072   -0.928180    2.401262
     79          1           0       -1.244593   -0.547509    2.578341
     80          1           0        1.361744   -4.498115   -1.380784
     81          1           0        1.763000   -3.027461   -2.266622
     82          1           0        0.478939   -4.094024   -2.864866
     83          1           0        4.825542    2.801296   -3.722968
     84          1           0        6.435820    2.209174   -3.309592
     85          1           0        5.013851    1.226442   -2.932518
     86          1           0        4.451278    4.711017   -2.473401
     87          1           0        8.670060   -0.989734   -1.805700
     88          1           0        4.774615    4.687454    1.790480
     89          1           0        5.871556   -2.020557    2.682430
     90          1           0        7.035743   -3.204763    2.063448
     91          1           0        7.888882    1.356212   -1.568151
     92          1           0        5.102089   -3.984354    3.871129
     93          1           0        5.477947   -5.052702    2.520563
     94          1           0        2.425666   -4.883900    3.473818
     95          1           0       -1.529642   -2.937327   -2.738893
     96          1           0        0.394641   -4.166677    2.236415
     97          1           0       -2.801826   -1.079866    0.902473
     98          1           0        5.942119   -4.825747    0.202307
     99          1           0        5.206838   -3.902172   -1.120681
    100          1           0        7.536501   -3.632583   -1.711038
    101          1           0        8.047867   -3.581562   -0.025868
    102          8           0       -5.920899   -0.123720    0.636956
    103          6           0       -6.678573    0.008473   -0.552777
    104          1           0       -7.396311    0.829250   -0.473224
    105          1           0       -6.019327    0.157535   -1.417397
    106          6           0       -7.446916   -1.288147   -0.719112
    107          6           0       -8.017809   -1.429844   -2.132950
    108          9           0       -6.640777   -2.351843   -0.511847
    109          9           0       -8.467823   -1.355665    0.153492
    110          9           0       -8.739404   -0.348547   -2.439517
    111          9           0       -7.014135   -1.528137   -3.010708
    112          9           0       -8.784214   -2.505948   -2.232427
 ---------------------------------------------------------------------
 Rotational constants (GHZ):           0.0600109           0.0194017           0.0168626
 Standard basis: 6-31G(d,p) (6D, 7F)
  1224 basis functions,  2194 primitive gaussians,  1224 cartesian basis functions
   244 alpha electrons      244 beta electrons
       nuclear repulsion energy     11271.9423663959 Hartrees.
 NAtoms=  112 NActive=  112 NUniq=  112 SFac= 1.00D+00 NAtFMM=   60 NAOKFM=T Big=T
 Integral buffers will be    131072 words long.
 Raffenetti 2 integral format.
 Two-electron integral symmetry is turned off.
 One-electron integrals computed using PRISM.
 NBasis=  1224 RedAO= T EigKep=  2.35D-04  NBF=  1224
 NBsUse=  1224 1.00D-06 EigRej= -1.00D+00 NBFU=  1224
 Initial guess from the checkpoint file:  "N1_S_PA1_ts2_opts.chk"
 B after Tr=     0.234060    0.012680    0.009369
         Rot=    1.000000    0.000001   -0.000000   -0.000000 Ang=   0.00 deg.
 ExpMin= 9.98D-02 ExpMax= 1.94D+04 ExpMxC= 2.91D+03 IAcc=3 IRadAn=         5 AccDes= 0.00D+00
 Harris functional with IExCor= 1009 and IRadAn=       5 diagonalized for initial guess.
 HarFok:  IExCor= 1009 AccDes= 0.00D+00 IRadAn=         5 IDoV= 1 UseB2=F ITyADJ=14
 ICtDFT=  3500011 ScaDFX=  1.000000  1.000000  1.000000  1.000000
 FoFCou: FMM=F IPFlag=           0 FMFlag=      100000 FMFlg1=        2001
         NFxFlg=           0 DoJE=T BraDBF=F KetDBF=T FulRan=T
         wScrn=  0.000000 ICntrl=       500 IOpCl=  0 I1Cent=   200000004 NGrid=           0
         NMat0=    1 NMatS0=      1 NMatT0=    0 NMatD0=    1 NMtDS0=    0 NMtDT0=    0
 Symmetry not used in FoFCou.
 Requested convergence on RMS density matrix=1.00D-08 within 128 cycles.
 Requested convergence on MAX density matrix=1.00D-06.
 Requested convergence on             energy=1.00D-06.
 No special actions if energy rises.
 Integral accuracy reduced to 1.0D-05 until final iterations.
 Initial convergence to 1.0D-05 achieved.  Increase integral accuracy.
 SCF Done:  E(RM062X) =  -3557.95886531     A.U. after   11 cycles
            NFock= 11  Conv=0.74D-08     -V/T= 2.0077
 DoSCS=F DFT=T ScalE2(SS,OS)=  1.000000  1.000000
 Range of M.O.s used for correlation:     1  1224
 NBasis=  1224 NAE=   244 NBE=   244 NFC=     0 NFV=     0
 NROrb=   1224 NOA=   244 NOB=   244 NVA=   980 NVB=   980
 Symmetrizing basis deriv contribution to polar:
 IMax=3 JMax=2 DiffMx= 0.00D+00
 Calling FoFJK, ICntrl=      2127 FMM=T ISym2X=0 I1Cent= 0 IOpClX= 0 NMat=1 NMatS=1 NMatT=0.
 -------------------------------------------------------------------
 Center     Atomic                   Forces (Hartrees/Bohr)
 Number     Number              X              Y              Z
 -------------------------------------------------------------------
      1        8          -0.000206325   -0.000643837    0.000513114
      2        7          -0.000178180   -0.000091756    0.000124976
      3        8          -0.000400684   -0.000214103   -0.000517602
      4        8           0.000357334    0.000011581    0.000021778
      5        6          -0.000204789    0.000172813   -0.000365819
      6        7          -0.000027288   -0.000013248    0.000021424
      7        6           0.000014528    0.000000912   -0.000011769
      8        6           0.000910620    0.001103925   -0.000347756
      9        6          -0.000043438    0.000037502   -0.000073463
     10        6           0.000946071   -0.001765483    0.001314882
     11        6          -0.000017255   -0.000041503    0.000004702
     12        6           0.000022734    0.000016116   -0.000012454
     13        6          -0.000009958   -0.000025880   -0.000012669
     14        6           0.000017366   -0.000007571   -0.000022185
     15        6           0.000010786   -0.000001354    0.000001676
     16        8           0.000018772    0.000004740   -0.000009143
     17        8           0.000020938    0.000007367   -0.000017222
     18        1           0.000139269   -0.000283403    0.000071110
     19        1           0.000017182   -0.000008267    0.000034306
     20        1          -0.000113183   -0.000053315    0.000046860
     21        1           0.000009858    0.000078824   -0.000007323
     22        1           0.000019690   -0.000020290    0.000013977
     23        1          -0.000034817    0.000035798    0.000012541
     24        1          -0.000001343    0.000004063    0.000009601
     25        1          -0.000002541   -0.000006744    0.000001991
     26        1           0.000002936   -0.000002020    0.000000499
     27        8           0.000827325   -0.000511617   -0.000411343
     28        8           0.000565511   -0.000020992   -0.000212576
     29        6           0.000013813    0.000015114    0.000004204
     30        8           0.000294190   -0.000252543   -0.000288626
     31        6          -0.000005724   -0.000000299    0.000001481
     32        6          -0.000004572    0.000000310   -0.000010070
     33        8           0.000045362    0.000544029   -0.000291606
     34        6           0.000041473    0.000016583   -0.000020080
     35        6          -0.000002276    0.000002587    0.000000046
     36        6           0.000000016   -0.000004499    0.000001980
     37        6          -0.000009338    0.000005466   -0.000004444
     38        6           0.000045023    0.000009167   -0.000014504
     39        6           0.000016948   -0.000001451   -0.000007346
     40        6          -0.000010237   -0.000002064    0.000005313
     41        6          -0.000001043    0.000001874    0.000007298
     42        6          -0.000028388    0.000005659   -0.000001043
     43        6           0.000011475   -0.000022061   -0.000001604
     44        6          -0.000053160    0.000025113    0.000019311
     45        6          -0.000008539    0.000013359   -0.000003536
     46        6           0.000011598   -0.000005517   -0.000013091
     47        6           0.000002043   -0.000007250   -0.000010786
     48        6           0.000005136   -0.000010611    0.000011352
     49        6           0.000013788    0.000000336   -0.000006694
     50        6           0.000024261    0.000009924   -0.000019199
     51        6           0.000041705    0.000020849   -0.000009533
     52        6           0.000031198    0.000130928   -0.000158717
     53        6          -0.000006106   -0.000001680    0.000004748
     54        6           0.000058350   -0.000040634   -0.000016246
     55        6           0.000006768   -0.000006844    0.000005794
     56        6           0.000029370   -0.000011164    0.000016917
     57        6          -0.000017239    0.000005873   -0.000009712
     58        6          -0.000009962    0.000018993   -0.000006899
     59        6          -0.000002263    0.000014296   -0.000022339
     60        6           0.000001378    0.000008124    0.000014758
     61        6           0.000002754    0.000026140   -0.000006804
     62        6           0.000007090    0.000006906    0.000014511
     63        6           0.000007263    0.000008344   -0.000014952
     64        6          -0.000002076    0.000004420    0.000006629
     65        6           0.000007567   -0.000003998   -0.000013434
     66       15          -0.001972122    0.000486100    0.001679536
     67        1          -0.001270573    0.001136399   -0.000969794
     68        1           0.000001353    0.000002739    0.000002331
     69        1          -0.000002424    0.000020358    0.000002853
     70        1           0.000001258    0.000000574    0.000000621
     71        1          -0.000004771   -0.000001229   -0.000012583
     72        1          -0.000000461   -0.000002113    0.000000139
     73        1          -0.000004034   -0.000001276   -0.000003906
     74        1          -0.000002666    0.000003954    0.000000921
     75        1          -0.000002589   -0.000002012   -0.000000174
     76        1          -0.000008814    0.000003827   -0.000006506
     77        1           0.000009013   -0.000002446   -0.000001818
     78        1           0.000003830    0.000019638   -0.000040210
     79        1          -0.000003280   -0.000006741    0.000000471
     80        1          -0.000001217    0.000004807    0.000000850
     81        1           0.000001935    0.000003052    0.000009791
     82        1          -0.000001049    0.000001479   -0.000002005
     83        1           0.000005846    0.000002728   -0.000000668
     84        1           0.000001533   -0.000000905    0.000004030
     85        1          -0.000001423    0.000005129    0.000007938
     86        1           0.000007696    0.000006026   -0.000003077
     87        1           0.000004719   -0.000000628   -0.000001707
     88        1          -0.000000164    0.000001235    0.000002914
     89        1          -0.000003269    0.000003241    0.000000492
     90        1          -0.000004327    0.000000906    0.000000199
     91        1           0.000006176   -0.000000119   -0.000002771
     92        1           0.000000205   -0.000001615   -0.000003639
     93        1           0.000001674   -0.000001144   -0.000000535
     94        1          -0.000000935   -0.000000530   -0.000002068
     95        1          -0.000001798   -0.000003121   -0.000005563
     96        1           0.000003519    0.000001210   -0.000000905
[...]
 Alpha virt. eigenvalues --    1.25336   1.25759   1.26212   1.26338   1.26971
 Alpha virt. eigenvalues --    1.27161   1.27372   1.27641   1.27825   1.28372
 Alpha virt. eigenvalues --    1.28956   1.29184   1.29514   1.30238   1.30323
 Alpha virt. eigenvalues --    1.30471   1.30759   1.31261   1.31944   1.32478
 Alpha virt. eigenvalues --    1.32996   1.33469   1.33531   1.34236   1.34781
 Alpha virt. eigenvalues --    1.35295   1.35666   1.36404   1.36600   1.37425
 Alpha virt. eigenvalues --    1.37649   1.37930   1.38023   1.38648   1.38944
 Alpha virt. eigenvalues --    1.39045   1.39720   1.39850   1.40050   1.40245
 Alpha virt. eigenvalues --    1.40824   1.40941   1.41150   1.41296   1.41562
 Alpha virt. eigenvalues --    1.41916   1.42671   1.42814   1.42957   1.42978
 Alpha virt. eigenvalues --    1.43370   1.43700   1.43975   1.44190   1.44450
 Alpha virt. eigenvalues --    1.44806   1.45144   1.45190   1.45730   1.45953
 Alpha virt. eigenvalues --    1.46254   1.46786   1.47099   1.47566   1.48377
 Alpha virt. eigenvalues --    1.48504   1.49090   1.49443   1.49843   1.50237
 Alpha virt. eigenvalues --    1.50465   1.50873   1.51050   1.51962   1.52308
 Alpha virt. eigenvalues --    1.53118   1.53299   1.53972   1.54254   1.54663
 Alpha virt. eigenvalues --    1.55289   1.55765   1.56485   1.57347   1.58013
 Alpha virt. eigenvalues --    1.58616   1.59430   1.60217   1.61279   1.61679
 Alpha virt. eigenvalues --    1.62465   1.63232   1.63646   1.64322   1.64992
 Alpha virt. eigenvalues --    1.65593   1.65808   1.66077   1.67144   1.67630
 Alpha virt. eigenvalues --    1.68276   1.68596   1.70109   1.70254   1.70746
 Alpha virt. eigenvalues --    1.71235   1.71613   1.71920   1.72860   1.73173
 Alpha virt. eigenvalues --    1.73582   1.73975   1.74228   1.75032   1.75468
 Alpha virt. eigenvalues --    1.75661   1.75876   1.75893   1.76231   1.76515
 Alpha virt. eigenvalues --    1.76842   1.77468   1.77658   1.78321   1.78492
 Alpha virt. eigenvalues --    1.78609   1.78910   1.79274   1.79663   1.79925
 Alpha virt. eigenvalues --    1.80239   1.80433   1.80733   1.81205   1.81322
 Alpha virt. eigenvalues --    1.81705   1.81943   1.82383   1.82763   1.82780
 Alpha virt. eigenvalues --    1.82921   1.83429   1.83631   1.83797   1.84231
 Alpha virt. eigenvalues --    1.84676   1.84823   1.85171   1.85443   1.85634
 Alpha virt. eigenvalues --    1.85859   1.85954   1.86201   1.86448   1.86773
 Alpha virt. eigenvalues --    1.86965   1.87266   1.87741   1.88010   1.88071
 Alpha virt. eigenvalues --    1.88477   1.88652   1.88930   1.89121   1.89315
 Alpha virt. eigenvalues --    1.89628   1.89804   1.90107   1.90512   1.91201
 Alpha virt. eigenvalues --    1.91301   1.91523   1.91784   1.91870   1.92142
 Alpha virt. eigenvalues --    1.92595   1.93131   1.93448   1.93738   1.93769
 Alpha virt. eigenvalues --    1.94059   1.94294   1.94876   1.95338   1.95997
 Alpha virt. eigenvalues --    1.96168   1.96596   1.97162   1.97306   1.97750
 Alpha virt. eigenvalues --    1.98175   1.98565   1.98921   1.99094   1.99490
 Alpha virt. eigenvalues --    2.00428   2.00524   2.01148   2.01299   2.01910
 Alpha virt. eigenvalues --    2.02021   2.02080   2.02470   2.02746   2.02952
 Alpha virt. eigenvalues --    2.03466   2.03782   2.04157   2.04340   2.04675
 Alpha virt. eigenvalues --    2.04980   2.04994   2.05410   2.05605   2.05974
 Alpha virt. eigenvalues --    2.06174   2.06305   2.06473   2.06845   2.07559
 Alpha virt. eigenvalues --    2.07603   2.08073   2.08513   2.08699   2.08768
 Alpha virt. eigenvalues --    2.09282   2.09649   2.09918   2.10574   2.10673
 Alpha virt. eigenvalues --    2.10890   2.10977   2.11267   2.11551   2.11720
 Alpha virt. eigenvalues --    2.11930   2.12213   2.12435   2.12888   2.13212
 Alpha virt. eigenvalues --    2.13352   2.13508   2.13912   2.14381   2.14782
 Alpha virt. eigenvalues --    2.14930   2.15224   2.15506   2.15842   2.15998
 Alpha virt. eigenvalues --    2.16180   2.16454   2.16491   2.16727   2.16841
 Alpha virt. eigenvalues --    2.17584   2.17717   2.17904   2.18290   2.18682
 Alpha virt. eigenvalues --    2.18746   2.19239   2.19393   2.20309   2.20611
 Alpha virt. eigenvalues --    2.20916   2.21497   2.21797   2.22097   2.22442
 Alpha virt. eigenvalues --    2.22666   2.23231   2.23857   2.24495   2.24840
 Alpha virt. eigenvalues --    2.24949   2.25354   2.25685   2.25774   2.26117
 Alpha virt. eigenvalues --    2.26333   2.26699   2.26881   2.27339   2.27851
 Alpha virt. eigenvalues --    2.28225   2.28699   2.28832   2.29246   2.30217
 Alpha virt. eigenvalues --    2.30394   2.30950   2.31311   2.31544   2.32143
 Alpha virt. eigenvalues --    2.32355   2.32450   2.32651   2.33092   2.33509
 Alpha virt. eigenvalues --    2.34025   2.35112   2.35832   2.36034   2.36637
 Alpha virt. eigenvalues --    2.37619   2.37876   2.38071   2.38642   2.39215
 Alpha virt. eigenvalues --    2.39622   2.39903   2.39989   2.40430   2.40816
 Alpha virt. eigenvalues --    2.41029   2.41305   2.41422   2.41640   2.41957
 Alpha virt. eigenvalues --    2.42353   2.42620   2.43136   2.43290   2.43883
 Alpha virt. eigenvalues --    2.44194   2.44741   2.44862   2.45712   2.45793
 Alpha virt. eigenvalues --    2.46337   2.46483   2.46686   2.47350   2.47770
 Alpha virt. eigenvalues --    2.48142   2.48572   2.48614   2.48983   2.49422
 Alpha virt. eigenvalues --    2.49519   2.50986   2.51229   2.51576   2.51783
 Alpha virt. eigenvalues --    2.52103   2.53322   2.53546   2.53881   2.53907
 Alpha virt. eigenvalues --    2.54708   2.54902   2.55360   2.55722   2.55814
 Alpha virt. eigenvalues --    2.56317   2.57070   2.57492   2.58018   2.58464
 Alpha virt. eigenvalues --    2.59029   2.59506   2.59896   2.60206   2.60238
 Alpha virt. eigenvalues --    2.60756   2.60986   2.61376   2.61719   2.61981
 Alpha virt. eigenvalues --    2.62620   2.62666   2.62741   2.63661   2.64254
 Alpha virt. eigenvalues --    2.64416   2.64718   2.65004   2.65162   2.65385
 Alpha virt. eigenvalues --    2.66528   2.66724   2.66978   2.67404   2.67618
 Alpha virt. eigenvalues --    2.67918   2.68054   2.68365   2.69128   2.69209
 Alpha virt. eigenvalues --    2.69753   2.70089   2.70362   2.70386   2.71036
 Alpha virt. eigenvalues --    2.71213   2.71775   2.72009   2.72306   2.72883
 Alpha virt. eigenvalues --    2.73052   2.73780   2.73951   2.74028   2.74333
 Alpha virt. eigenvalues --    2.74748   2.75406   2.76194   2.77363   2.77683
 Alpha virt. eigenvalues --    2.78137   2.78262   2.78594   2.78874   2.79028
 Alpha virt. eigenvalues --    2.79265   2.79613   2.79848   2.80237   2.80316
 Alpha virt. eigenvalues --    2.80719   2.80882   2.81495   2.81794   2.82100
 Alpha virt. eigenvalues --    2.82348   2.82867   2.83028   2.83351   2.83933
 Alpha virt. eigenvalues --    2.84977   2.85124   2.85517   2.85949   2.86467
 Alpha virt. eigenvalues --    2.86938   2.87234   2.87946   2.88634   2.88933
 Alpha virt. eigenvalues --    2.89166   2.89225   2.89881   2.90154   2.90254
 Alpha virt. eigenvalues --    2.90548   2.91058   2.91325   2.92275   2.92593
 Alpha virt. eigenvalues --    2.92754   2.93362   2.94292   2.94377   2.94520
 Alpha virt. eigenvalues --    2.95606   2.96168   2.97015   2.97200   2.98790
 Alpha virt. eigenvalues --    2.99021   3.01054   3.01356   3.01570   3.02180
 Alpha virt. eigenvalues --    3.02712   3.03717   3.03812   3.04437   3.06561
 Alpha virt. eigenvalues --    3.07691   3.08089   3.08276   3.09295   3.09810
 Alpha virt. eigenvalues --    3.10023   3.10430   3.11642   3.12319   3.12713
 Alpha virt. eigenvalues --    3.14221   3.16015   3.16608   3.17097   3.17544
 Alpha virt. eigenvalues --    3.17902   3.19222   3.20060   3.20287   3.20713
 Alpha virt. eigenvalues --    3.21247   3.21562   3.21711   3.22229   3.22668
 Alpha virt. eigenvalues --    3.23805   3.24409   3.26049   3.26465   3.26614
 Alpha virt. eigenvalues --    3.27165   3.27845   3.28331   3.29559   3.29866
 Alpha virt. eigenvalues --    3.30153   3.30456   3.31127   3.31458   3.31884
 Alpha virt. eigenvalues --    3.33304   3.34923   3.36441   3.39566   3.41379
 Alpha virt. eigenvalues --    3.41776   3.43307   3.43763   3.43935   3.44433
 Alpha virt. eigenvalues --    3.44525   3.44782   3.45227   3.45274   3.45410
 Alpha virt. eigenvalues --    3.45680   3.46070   3.46233   3.46533   3.46907
 Alpha virt. eigenvalues --    3.47780   3.47991   3.49751   3.50140   3.50463
 Alpha virt. eigenvalues --    3.52732   3.57349   3.60793   3.61141   3.66477
 Alpha virt. eigenvalues --    3.67426   3.69567   3.71385   3.73098   3.74686
 Alpha virt. eigenvalues --    3.75523   3.87092   3.96756   4.02137   4.07481
 Alpha virt. eigenvalues --    4.09105   4.10817   4.13367   4.16643   4.16814
 Alpha virt. eigenvalues --    4.17495   4.19838   4.21102   4.21410   4.23274
 Alpha virt. eigenvalues --    4.23487   4.23977   4.24587   4.24764   4.25715
 Alpha virt. eigenvalues --    4.26625   4.26709   4.31221   4.33988   4.35145
 Alpha virt. eigenvalues --    4.36370   4.38705   4.39721   4.40338   4.41067
 Alpha virt. eigenvalues --    4.41924   4.43412   4.43711   4.44692   4.45245
 Alpha virt. eigenvalues --    4.47014   4.48784   4.49617   4.49796   4.51638
 Alpha virt. eigenvalues --    4.52720   4.54758   4.57433   4.58778   4.59599
 Alpha virt. eigenvalues --    4.60344   4.61575   4.62625   4.63282   4.64480
 Alpha virt. eigenvalues --    4.65288   4.71238   4.72622   4.78897   4.83240
 Alpha virt. eigenvalues --    4.84382   4.85148   4.86546   4.89131   4.94262
 Alpha virt. eigenvalues --    4.95725   4.98771   5.29510   5.33545   5.71630
          Condensed to atoms (all electrons):
 Mulliken charges:
               1
     1  O   -0.555720
     2  N   -0.584249
     3  O   -0.566884
     4  O   -0.581905
     5  C   -0.349217
     6  N    0.401012
     7  C    0.204714
     8  C    0.577706
     9  C   -0.001395
    10  C   -0.036735
    11  C    0.590738
    12  C   -0.122309
    13  C    0.326343
    14  C   -0.126087
    15  C   -0.114935
    16  O   -0.384697
    17  O   -0.388328
    18  H    0.396505
    19  H    0.287315
    20  H    0.408747
    21  H    0.126746
    22  H    0.157692
    23  H    0.119489
    24  H    0.174898
    25  H    0.119652
    26  H    0.187410
    27  O   -0.610654
    28  O   -0.616502
    29  C   -0.412241
    30  O   -0.620552
    31  C   -0.410693
    32  C   -0.419144
    33  O   -0.629557
    34  C   -0.393955
    35  C   -0.412037
    36  C   -0.397887
    37  C   -0.176721
    38  C    0.134986
    39  C   -0.146475
    40  C   -0.193470
    41  C    0.113040
    42  C    0.139433
    43  C   -0.064850
    44  C    0.199986
    45  C   -0.149304
    46  C    0.100018
    47  C   -0.211209
    48  C    0.095250
    49  C    0.030304
    50  C   -0.147398
    51  C   -0.005571
    52  C    0.206991
    53  C   -0.266741
    54  C    0.005307
    55  C   -0.145365
    56  C   -0.050766
    57  C    0.026300
    58  C   -0.194668
    59  C   -0.143479
    60  C    0.106153
    61  C   -0.237131
    62  C    0.078957
    63  C    0.109343
    64  C   -0.211344
    65  C   -0.266905
    66  P    1.333914
    67  H    0.379224
    68  H    0.123058
    69  H    0.170334
    70  H    0.118572
    71  H    0.154062
    72  H    0.122923
    73  H    0.129114
    74  H    0.146292
    75  H    0.134825
    76  H    0.130678
    77  H    0.140471
    78  H    0.165648
    79  H    0.112418
    80  H    0.138500
    81  H    0.170180
    82  H    0.125998
    83  H    0.122746
    84  H    0.122468
    85  H    0.155348
    86  H    0.101053
    87  H    0.122884
    88  H    0.096766
    89  H    0.139353
    90  H    0.119199
    91  H    0.131056
    92  H    0.140583
    93  H    0.137185
    94  H    0.125851
    95  H    0.110329
    96  H    0.130414
    97  H    0.103652
    98  H    0.116698
    99  H    0.137297
   100  H    0.140195
   101  H    0.135547
   102  O   -0.551333
   103  C   -0.022982
   104  H    0.179124
   105  H    0.140054
   106  C    0.523868
   107  C    0.800449
   108  F   -0.278602
   109  F   -0.271334
   110  F   -0.265083
   111  F   -0.264608
   112  F   -0.252345
 Sum of Mulliken charges =  -0.00000
 Mulliken charges with hydrogens summed into heavy atoms:
               1
     1  O   -0.159215
     2  N   -0.296934
     3  O   -0.158137
     4  O   -0.581905
     5  C    0.054709
     6  N    0.401012
     7  C    0.204714
     8  C    0.577706
     9  C   -0.001395
    10  C   -0.036735
    11  C    0.590738
    12  C    0.052589
    13  C    0.326343
    14  C   -0.006435
    15  C    0.072475
    16  O   -0.384697
    17  O   -0.388328
    27  O   -0.231430
    28  O   -0.616502
    29  C   -0.000277
    30  O   -0.620552
    31  C   -0.004594
    32  C   -0.007349
    33  O   -0.629557
    34  C    0.024583
    35  C    0.022641
    36  C    0.002675
    37  C   -0.075668
    38  C    0.134986
    39  C   -0.023591
    40  C   -0.096705
    41  C    0.113040
    42  C    0.139433
    43  C   -0.064850
    44  C    0.199986
    45  C   -0.149304
    46  C    0.100018
    47  C    0.047344
    48  C    0.095250
    49  C    0.030304
    50  C   -0.016342
    51  C   -0.005571
    52  C    0.206991
    53  C    0.011027
    54  C    0.005307
    55  C   -0.019514
    56  C   -0.050766
    57  C    0.026300
    58  C   -0.084339
    59  C   -0.013065
    60  C    0.106153
    61  C   -0.133479
    62  C    0.078957
    63  C    0.109343
    64  C    0.042651
    65  C    0.008837
    66  P    1.333914
   102  O   -0.551333
   103  C    0.296197
   106  C    0.523868
   107  C    0.800449
   108  F   -0.278602
   109  F   -0.271334
   110  F   -0.265083
   111  F   -0.264608
   112  F   -0.252345
 APT charges:
               1
     1  O    0.006945
     2  N   -0.455978
     3  O   -0.203178
     4  O    0.182912
     5  C   -1.050204
     6  N   -1.016401
     7  C    0.876689
     8  C    0.043377
     9  C   -0.637998
    10  C   -0.403081
    11  C   -0.328122
    12  C   -0.497065
    13  C    0.057346
    14  C   -0.611085
    15  C   -0.367940
    16  O    0.459414
    17  O    0.278695
    18  H    0.217516
    19  H    0.148706
    20  H    0.470767
    21  H    0.450410
    22  H    0.498968
    23  H    0.108832
    24  H    0.567188
    25  H   -0.116722
    26  H    1.275863
    27  O   -0.667877
    28  O   -0.085954
    29  C   -1.287808
    30  O   -0.383792
    31  C   -1.180567
    32  C   -1.384091
    33  O   -0.383195
    34  C   -1.098035
    35  C   -1.333181
    36  C   -1.107633
    37  C   -0.487478
    38  C   -0.528249
    39  C   -0.404034
    40  C   -0.432780
    41  C    0.126713
    42  C    0.205220
    43  C   -0.326905
    44  C   -0.627619
    45  C   -0.022573
    46  C   -0.118140
    47  C   -1.226305
    48  C   -0.061583
    49  C    0.473044
    50  C   -0.397537
    51  C   -0.691058
    52  C   -0.286018
    53  C   -1.583490
    54  C   -0.580658
    55  C   -0.513881
    56  C   -0.227337
    57  C    0.747665
    58  C   -0.468172
    59  C   -0.510003
    60  C    0.029251
    61  C   -0.574357
    62  C   -0.207719
    63  C    0.088462
    64  C   -0.567981
    65  C   -2.053861
    66  P    0.595074
    67  H    0.250414
    68  H    0.947282
    69  H   -0.314926
    70  H    0.779575
    71  H   -0.344001
    72  H    0.781012
    73  H    0.826795
    74  H    0.776399
    75  H    0.417159
    76  H    0.229933
    77  H    0.672590
    78  H    0.230117
    79  H    0.280237
    80  H    0.590367
    81  H    0.195837
    82  H    0.667311
    83  H    0.333071
    84  H    1.082866
    85  H   -0.236055
    86  H    0.542584
    87  H    1.437507
    88  H    0.571210
    89  H    0.036402
    90  H    1.160208
    91  H    1.052434
    92  H    0.650317
    93  H    0.929196
    94  H    0.983537
    95  H    0.678131
    96  H    0.399148
    97  H    0.390437
    98  H    0.801872
    99  H   -0.123996
   100  H    0.790926
   101  H    1.067536
   102  O   -0.239108
   103  C   -0.761900
   104  H    0.952972
   105  H   -0.146684
   106  C   -0.321100
   107  C   -0.126029
   108  F   -0.467939
   109  F    0.432979
   110  F    0.450626
   111  F   -0.631191
   112  F    0.912530
 Sum of APT charges =  -0.00000
 APT charges with hydrogens summed into heavy atoms:
               1
     1  O    0.224461
     2  N   -0.307271
     3  O    0.267589
     4  O    0.182912
     5  C    0.008006
     6  N   -1.016401
     7  C    0.876689
     8  C    0.043377
     9  C   -0.637998
    10  C   -0.403081
    11  C   -0.328122
    12  C    0.070123
    13  C    0.057346
    14  C   -0.727806
    15  C    0.907923
    16  O    0.459414
    17  O    0.278695
    27  O   -0.417463
    28  O   -0.085954
    29  C    0.124123
    30  O   -0.383792
    31  C    0.083239
    32  C    0.039400
    33  O   -0.383195
    34  C    0.084910
    35  C    0.120334
    36  C    0.072248
    37  C    0.055106
    38  C   -0.528249
    39  C    1.033473
    40  C    0.138430
    41  C    0.126713
    42  C    0.205220
    43  C   -0.326905
    44  C   -0.627619
    45  C   -0.022573
    46  C   -0.118140
    47  C   -0.029694
    48  C   -0.061583
    49  C    0.473044
    50  C    0.654896
    51  C   -0.691058
    52  C   -0.286018
    53  C   -0.003977
    54  C   -0.580658
    55  C    0.469656
    56  C   -0.227337
    57  C    0.747665
    58  C    0.209959
    59  C   -0.110854
    60  C    0.029251
    61  C   -0.183920
    62  C   -0.207719
    63  C    0.088462
    64  C    0.109895
    65  C   -0.195400
    66  P    0.595074
   102  O   -0.239108
   103  C    0.044388
   106  C   -0.321100
   107  C   -0.126029
   108  F   -0.467939
   109  F    0.432979
   110  F    0.450626
   111  F   -0.631191
   112  F    0.912530
 Electronic spatial extent (au):  <R**2>=          60863.2338
 Charge=              0.0000 electrons
 Dipole moment (field-independent basis, Debye):
    X=              3.4592    Y=             -4.4014    Z=             -0.0128  Tot=              5.5980
 Quadrupole moment (field-independent basis, Debye-Ang):
   XX=           -400.1509   YY=           -382.3620   ZZ=           -379.1723
   XY=            -34.1838   XZ=             19.1558   YZ=              0.6368
 Traceless Quadrupole moment (field-independent basis, Debye-Ang):
   XX=            -12.9225   YY=              4.8664   ZZ=              8.0561
   XY=            -34.1838   XZ=             19.1558   YZ=              0.6368
 Octapole moment (field-independent basis, Debye-Ang**2):
  XXX=            132.4267  YYY=            -97.2386  ZZZ=            -61.9441  XYY=           -115.3065
  XXY=            -88.1752  XXZ=           -179.6381  XZZ=            -79.7644  YZZ=            -27.4194
  YYZ=             43.1646  XYZ=            -20.6199
 Hexadecapole moment (field-independent basis, Debye-Ang**3):
 XXXX=         -57878.3464 YYYY=         -16290.4581 ZZZZ=          -5989.4191 XXXY=           -825.2073
 XXXZ=           1255.7785 YYYX=              4.3815 YYYZ=            169.4862 ZZZX=            546.2294
 ZZZY=             30.8941 XXYY=         -11701.2766 XXZZ=         -10562.1088 YYZZ=          -3425.5995
 XXYZ=           -133.5772 YYXZ=             91.7608 ZZXY=            147.3150
 N-N= 1.125234977237D+04 E-N=-3.082702296910D+04  KE= 3.530894912854D+03
  Exact polarizability:       0.000       0.000       0.000       0.000       0.000       0.000
 Approx polarizability:     726.224     -31.834     696.680     -44.060      15.340     670.033

 This type of calculation cannot be archived.


 MICRO CREDO - NEVER TRUST A COMPUTER BIGGER
               BIGGER THAN YOU CAN LIFT.
 Job cpu time:       3 days 15 hours  4 minutes 18.1 seconds.
 Elapsed time:       0 days  5 hours 31 minutes 57.9 seconds.
 File lengths (MBytes):  RWF=    986 Int=      0 D2E=      0 Chk=    133 Scr=      1
 Normal termination of Gaussian 16 at Sat Nov 12 13:03:46 2022.
