 Entering Gaussian System, Link 0=g16
 Initial command:
 /project/chenjingdan/g16/l1.exe "/scratch/chenjingdan/scratch/Gau-176873.inp" -scrdir="/scratch/chenjingdan/scratch/"
 Entering Link 1 = /project/chenjingdan/g16/l1.exe PID=    176874.
  
 Copyright (c) 1988-2019, Gaussian, Inc.  All Rights Reserved.
  
 This is part of the Gaussian(R) 16 program.  It is based on
 the Gaussian(R) 09 system (copyright 2009, Gaussian, Inc.),
 the Gaussian(R) 03 system (copyright 2003, Gaussian, Inc.),
 the Gaussian(R) 98 system (copyright 1998, Gaussian, Inc.),
 the Gaussian(R) 94 system (copyright 1995, Gaussian, Inc.),
 the Gaussian 92(TM) system (copyright 1992, Gaussian, Inc.),
 the Gaussian 90(TM) system (copyright 1990, Gaussian, Inc.),
 the Gaussian 88(TM) system (copyright 1988, Gaussian, Inc.),
 the Gaussian 86(TM) system (copyright 1986, Carnegie Mellon
 University), and the Gaussian 82(TM) system (copyright 1983,
 Carnegie Mellon University). Gaussian is a federally registered
 trademark of Gaussian, Inc.
  
 This software contains proprietary and confidential information,
 including trade secrets, belonging to Gaussian, Inc.
  
 This software is provided under written license and may be
 used, copied, transmitted, or stored only in accord with that
 written license.
  
 The following legend is applicable only to US Government
 contracts under FAR:
  
                    RESTRICTED RIGHTS LEGEND
  
 Use, reproduction and disclosure by the US Government is
 subject to restrictions as set forth in subparagraphs (a)
 and (c) of the Commercial Computer Software - Restricted
 Rights clause in FAR 52.227-19.
  
 Gaussian, Inc.
 340 Quinnipiac St., Bldg. 40, Wallingford CT 06492
  
  
 ---------------------------------------------------------------
 Warning -- This program may not be used in any manner that
 competes with the business of Gaussian, Inc. or will provide
 assistance to any competitor of Gaussian, Inc.  The licensee
 of this program is prohibited from giving any competitor of
 Gaussian, Inc. access to this program.  By using this program,
 the user acknowledges that Gaussian, Inc. is engaged in the
 business of creating and licensing software in the field of
 computational chemistry and represents and warrants to the
 licensee that it is not a competitor of Gaussian, Inc. and that
 it will not use this program in any manner prohibited above.
 ---------------------------------------------------------------
  

 Cite this work as:
 Gaussian 16, Revision C.01,
 M. J. Frisch, G. W. Trucks, H. B. Schlegel, G. E. Scuseria, 
 M. A. Robb, J. R. Cheeseman, G. Scalmani, V. Barone, 
 G. A. Petersson, H. Nakatsuji, X. Li, M. Caricato, A. V. Marenich, 
 J. Bloino, B. G. Janesko, R. Gomperts, B. Mennucci, H. P. Hratchian, 
 J. V. Ortiz, A. F. Izmaylov, J. L. Sonnenberg, D. Williams-Young, 
 F. Ding, F. Lipparini, F. Egidi, J. Goings, B. Peng, A. Petrone, 
 T. Henderson, D. Ranasinghe, V. G. Zakrzewski, J. Gao, N. Rega, 
 G. Zheng, W. Liang, M. Hada, M. Ehara, K. Toyota, R. Fukuda, 
 J. Hasegawa, M. Ishida, T. Nakajima, Y. Honda, O. Kitao, H. Nakai, 
 T. Vreven, K. Throssell, J. A. Montgomery, Jr., J. E. Peralta, 
 F. Ogliaro, M. J. Bearpark, J. J. Heyd, E. N. Brothers, K. N. Kudin, 
 V. N. Staroverov, T. A. Keith, R. Kobayashi, J. Normand, 
 K. Raghavachari, A. P. Rendell, J. C. Burant, S. S. Iyengar, 
 J. Tomasi, M. Cossi, J. M. Millam, M. Klene, C. Adamo, R. Cammi, 
 J. W. Ochterski, R. L. Martin, K. Morokuma, O. Farkas, 
 J. B. Foresman, and D. J. Fox, Gaussian, Inc., Wallingford CT, 2019.
 
 ******************************************
 Gaussian 16:  ES64L-G16RevC.01  3-Jul-2019
                12-Nov-2022 
 ******************************************
 %nprocshared=16
 Will use up to   16 processors via shared memory.
 %mem=60GB
 %chk=N2_ts2_invS_t2_opts_irc_lqa_mix.chk
 ------------------------------------------------------------
 #p irc=(calcfc,maxpoints=30,lqa,stepsize=8) 6-31g(d,p) m062x
 ------------------------------------------------------------
 1/10=4,18=10,26=3,38=1,39=8,42=30,44=3,45=2,172=1/1,23;
 2/12=2,17=6,18=5,29=1,40=1/2;
 3/5=1,6=6,7=101,11=2,25=1,30=1,71=2,74=-55,140=1/1,2,3;
 4//1;
 5/5=2,38=5/2;
 8/6=4,10=90,11=11/1;
 11/6=1,8=1,9=11,15=111,16=1/1,2,10;
 10/6=1,13=1/2;
 6/7=2,8=2,9=2,10=2,28=1/1;
 7/10=1,25=1/1,2,3,16;
 1/10=4,18=10,26=3,39=8,42=30,44=3,45=2/23(2);
 2/29=1/2;
 99/5=20/99;
 2/29=1/2;
 3/5=1,6=6,7=101,11=2,25=1,30=1,71=2,74=-55,140=1/1,2,3;
 4/5=5,16=3,69=1/1;
 5/5=2,38=5/2;
 8/6=4,10=90,11=11/1;
 11/6=1,8=1,9=11,15=111,16=1/1,2,10;
 10/6=1,13=1/2;
 7/10=1,25=1/1,2,3,16;
 1/18=10,26=3,39=8,42=30,44=3,45=2/23(-8);
 2/29=1/2;
 6/7=2,8=2,9=2,10=2,19=2,28=1/1;
 99/5=20,9=1/99;
 Leave Link    1 at Sat Nov 12 15:35:58 2022, MaxMem=  8053063680 cpu:               1.9 elap:               0.2
 (Enter /project/chenjingdan/g16/l101.exe)
 -----
 TITLE
 -----
 Symbolic Z-matrix:
 Charge =  0 Multiplicity = 1
 O                     1.52178   2.94105   4.44766 
 N                    -0.14931   1.86802   1.37567 
 O                    -0.35548   1.76915   4.30391 
 O                    -2.06101   1.59704   2.61095 
 C                     1.65608   3.51291   1.7223 
 N                    -4.08712  -1.60535  -2.45872 
 C                    -3.41746  -0.75225  -1.47092 
 C                     0.58408   2.34477   3.71108 
 C                    -2.06576   0.76322   0.40055 
 C                     0.86247   2.35079   2.30356 
 C                    -1.37979   1.45287   1.52544 
 C                    -1.35515   0.15684  -0.64128 
 C                    -4.14194  -0.14493  -0.44016 
 C                    -3.44874   0.6132    0.49509 
 C                    -2.04038  -0.60959  -1.57249 
 O                    -5.21772  -1.30625  -2.79418 
 O                    -3.45171  -2.54957  -2.8881 
 H                     1.29069   2.78057   5.375 
 H                     0.29718   1.69759   0.45863 
 H                    -1.39119   1.67774   3.44776 
 H                     1.05849   4.42922   1.66584 
 H                     2.5336    3.70233   2.34148 
 H                     2.00356   3.26135   0.71578 
 H                    -0.27341   0.22149  -0.71554 
 H                    -3.99255   1.03364   1.33359 
 O                     2.40556   0.33487   1.80033 
 O                     4.08142   0.23163  -0.00795 
 C                     3.69169   6.49267   0.04928 
 O                     2.02763  -1.26749  -0.19642 
 C                     6.41432   2.26459  -0.08822 
 C                    -3.55017  -1.38185   3.11094 
 O                     1.69847   1.1782   -0.54644 
 C                     1.36243  -1.3886    4.14109 
 C                    -0.34928  -3.36112  -0.23351 
 C                     2.38901   2.82624  -3.13959 
 C                     3.13474   4.6198   -1.55008 
 C                     4.67313  -1.21759  -1.80991 
 C                     5.13021  -0.30577  -4.00386 
 C                     5.01483   4.34882  -0.09771 
 C                     3.95832   5.13573  -0.55056 
 C                     3.81097  -2.83277   0.13556 
 C                     4.39926   2.56578  -1.60471 
 C                     4.47245   0.06711  -1.33108 
 C                     4.67009  -2.55152  -1.08588 
 C                     5.2507    3.07159  -0.60738 
 C                     6.07483  -2.91095  -0.52402 
 C                     3.33345   3.34743  -2.08555 
 C                     4.96216  -1.39974  -3.1648 
 C                     4.97947   0.979    -3.4843 
 C                     1.87066  -2.84998   1.60627 
 C                     2.57161  -2.33493   0.50942 
 C                     5.81712  -4.09194   0.4311 
 C                     4.62446   1.19391  -2.14825 
 C                     3.76868  -4.31444   2.04992 
 C                     0.49591  -2.37928   1.95516 
 C                     4.42497  -3.79608   0.94173 
 C                    -1.87512  -2.35454   1.48387 
 C                     2.48803  -3.85691   2.3556 
 C                    -0.57563  -2.68083   1.09354 
 C                    -1.05965  -1.37092   3.50345 
 C                     0.25239  -1.71325   3.17094 
 C                    -2.14045  -1.70568   2.68719 
 C                     4.3156   -3.50243  -2.26595 
 C                     5.00804  -2.87529  -3.49111 
 P                     2.49088   0.21675   0.27721 
 H                     1.73498   1.2815    2.18855 
 H                     3.19925   7.1541   -0.66769 
 H                     3.03798   6.40969   0.92483 
 H                     4.61823   6.97088   0.37655 
 H                     7.10166   2.89986   0.47464 
 H                     6.96873   1.79644  -0.90644 
 H                     6.0676    1.4653    0.57399 
 H                    -3.62476  -0.34182   3.4432 
 H                    -4.2604   -1.53453   2.29348 
 H                    -3.86036  -2.0183    3.94586 
 H                     1.06953  -0.54159   4.76844 
 H                     1.56019  -2.23672   4.80605 
 H                     2.28814  -1.13903   3.62166 
 H                     0.24576  -2.72624  -0.89883 
 H                    -1.30118  -3.57187  -0.72788 
 H                     0.19595  -4.30224  -0.11149 
 H                     2.86232   2.78238  -4.12524 
 H                     2.05089   1.82076  -2.87943 
 H                     1.51502   3.47689  -3.21932 
 H                     2.30528   5.22043  -1.91799 
 H                     5.36402  -0.44569  -5.05502 
 H                     5.67865   4.73882   0.6712 
 H                     6.45116  -2.05273   0.04276 
 H                     6.79238  -3.13683  -1.31799 
 H                     5.11684   1.84406  -4.12636 
 H                     6.55247  -4.15319   1.2378 
 H                     5.84325  -5.0496   -0.10315 
 H                     4.24529  -5.06374   2.67484 
 H                    -2.7021   -2.61185   0.82349 
 H                     1.95131  -4.26749   3.20595 
 H                    -1.24019  -0.84188   4.43768 
 H                     4.6188   -4.53493  -2.07081 
 H                     3.22972  -3.48778  -2.40856 
 H                     4.50256  -3.11181  -4.4312 
 H                     6.04399  -3.2237   -3.58455 
 H                    -1.5165   -1.13198  -2.36415 
 O                    -5.47366  -0.37768  -0.2585 
 C                    -6.32413   0.58727  -0.85123 
 H                    -6.25307   1.54939  -0.33052 
 H                    -6.0985    0.7086   -1.91411 
 C                    -7.73082   0.04722  -0.70708 
 C                    -8.7825    0.98621  -1.3054 
 F                    -7.84694  -1.14084  -1.32698 
 F                    -8.03879  -0.11852   0.59767 
 F                    -8.71708   2.17898  -0.70465 
 F                    -8.55165   1.15939  -2.60803 
 F                    -10.00176   0.49042  -1.1441 
 
 ITRead=  0  0  0  0  0  0  0  0  0  0  0  0  0  0  0  0  0  0  0  0
 ITRead=  0  0  0  0  0  0  0  0  0  0  0  0  0  0  0  0  0  0  0  0
 ITRead=  0  0  0  0  0  0  0  0  0  0  0  0  0  0  0  0  0  0  0  0
 ITRead=  0  0  0  0  0  0  0  0  0  0  0  0  0  0  0  0  0  0  0  0
 ITRead=  0  0  0  0  0  0  0  0  0  0  0  0  0  0  0  0  0  0  0  0
 ITRead=  0  0  0  0  0  0  0  0  0  0  0  0
 MicOpt= -1 -1 -1 -1 -1 -1 -1 -1 -1 -1 -1 -1 -1 -1 -1 -1 -1 -1 -1 -1
 MicOpt= -1 -1 -1 -1 -1 -1 -1 -1 -1 -1 -1 -1 -1 -1 -1 -1 -1 -1 -1 -1
 MicOpt= -1 -1 -1 -1 -1 -1 -1 -1 -1 -1 -1 -1 -1 -1 -1 -1 -1 -1 -1 -1
 MicOpt= -1 -1 -1 -1 -1 -1 -1 -1 -1 -1 -1 -1 -1 -1 -1 -1 -1 -1 -1 -1
 MicOpt= -1 -1 -1 -1 -1 -1 -1 -1 -1 -1 -1 -1 -1 -1 -1 -1 -1 -1 -1 -1
 MicOpt= -1 -1 -1 -1 -1 -1 -1 -1 -1 -1 -1 -1
 NAtoms=    112 NQM=      112 NQMF=       0 NMMI=      0 NMMIF=      0
                NMic=       0 NMicF=      0.
                    Isotopes and Nuclear Properties:
 (Nuclear quadrupole moments (NQMom) in fm**2, nuclear magnetic moments (NMagM)
  in nuclear magnetons)

  Atom         1           2           3           4           5           6           7           8           9          10
 IAtWgt=          16          14          16          16          12          14          12          12          12          12
 AtmWgt=  15.9949146  14.0030740  15.9949146  15.9949146  12.0000000  14.0030740  12.0000000  12.0000000  12.0000000  12.0000000
 NucSpn=           0           2           0           0           0           2           0           0           0           0
 AtZEff=  -0.0000000  -0.0000000  -0.0000000  -0.0000000  -0.0000000  -0.0000000  -0.0000000  -0.0000000  -0.0000000  -0.0000000
 NQMom=    0.0000000   2.0440000   0.0000000   0.0000000   0.0000000   2.0440000   0.0000000   0.0000000   0.0000000   0.0000000
 NMagM=    0.0000000   0.4037610   0.0000000   0.0000000   0.0000000   0.4037610   0.0000000   0.0000000   0.0000000   0.0000000
 AtZNuc=   8.0000000   7.0000000   8.0000000   8.0000000   6.0000000   7.0000000   6.0000000   6.0000000   6.0000000   6.0000000

  Atom        11          12          13          14          15          16          17          18          19          20
 IAtWgt=          12          12          12          12          12          16          16           1           1           1
 AtmWgt=  12.0000000  12.0000000  12.0000000  12.0000000  12.0000000  15.9949146  15.9949146   1.0078250   1.0078250   1.0078250
 NucSpn=           0           0           0           0           0           0           0           1           1           1
 AtZEff=  -0.0000000  -0.0000000  -0.0000000  -0.0000000  -0.0000000  -0.0000000  -0.0000000  -0.0000000  -0.0000000  -0.0000000
 NQMom=    0.0000000   0.0000000   0.0000000   0.0000000   0.0000000   0.0000000   0.0000000   0.0000000   0.0000000   0.0000000
 NMagM=    0.0000000   0.0000000   0.0000000   0.0000000   0.0000000   0.0000000   0.0000000   2.7928460   2.7928460   2.7928460
 AtZNuc=   6.0000000   6.0000000   6.0000000   6.0000000   6.0000000   8.0000000   8.0000000   1.0000000   1.0000000   1.0000000

  Atom        21          22          23          24          25          26          27          28          29          30
 IAtWgt=           1           1           1           1           1          16          16          12          16          12
 AtmWgt=   1.0078250   1.0078250   1.0078250   1.0078250   1.0078250  15.9949146  15.9949146  12.0000000  15.9949146  12.0000000
 NucSpn=           1           1           1           1           1           0           0           0           0           0
 AtZEff=  -0.0000000  -0.0000000  -0.0000000  -0.0000000  -0.0000000  -0.0000000  -0.0000000  -0.0000000  -0.0000000  -0.0000000
 NQMom=    0.0000000   0.0000000   0.0000000   0.0000000   0.0000000   0.0000000   0.0000000   0.0000000   0.0000000   0.0000000
 NMagM=    2.7928460   2.7928460   2.7928460   2.7928460   2.7928460   0.0000000   0.0000000   0.0000000   0.0000000   0.0000000
 AtZNuc=   1.0000000   1.0000000   1.0000000   1.0000000   1.0000000   8.0000000   8.0000000   6.0000000   8.0000000   6.0000000

  Atom        31          32          33          34          35          36          37          38          39          40
 IAtWgt=          12          16          12          12          12          12          12          12          12          12
 AtmWgt=  12.0000000  15.9949146  12.0000000  12.0000000  12.0000000  12.0000000  12.0000000  12.0000000  12.0000000  12.0000000
 NucSpn=           0           0           0           0           0           0           0           0           0           0
 AtZEff=  -0.0000000  -0.0000000  -0.0000000  -0.0000000  -0.0000000  -0.0000000  -0.0000000  -0.0000000  -0.0000000  -0.0000000
 NQMom=    0.0000000   0.0000000   0.0000000   0.0000000   0.0000000   0.0000000   0.0000000   0.0000000   0.0000000   0.0000000
 NMagM=    0.0000000   0.0000000   0.0000000   0.0000000   0.0000000   0.0000000   0.0000000   0.0000000   0.0000000   0.0000000
 AtZNuc=   6.0000000   8.0000000   6.0000000   6.0000000   6.0000000   6.0000000   6.0000000   6.0000000   6.0000000   6.0000000

  Atom        41          42          43          44          45          46          47          48          49          50
 IAtWgt=          12          12          12          12          12          12          12          12          12          12
 AtmWgt=  12.0000000  12.0000000  12.0000000  12.0000000  12.0000000  12.0000000  12.0000000  12.0000000  12.0000000  12.0000000
 NucSpn=           0           0           0           0           0           0           0           0           0           0
 AtZEff=  -0.0000000  -0.0000000  -0.0000000  -0.0000000  -0.0000000  -0.0000000  -0.0000000  -0.0000000  -0.0000000  -0.0000000
 NQMom=    0.0000000   0.0000000   0.0000000   0.0000000   0.0000000   0.0000000   0.0000000   0.0000000   0.0000000   0.0000000
 NMagM=    0.0000000   0.0000000   0.0000000   0.0000000   0.0000000   0.0000000   0.0000000   0.0000000   0.0000000   0.0000000
 AtZNuc=   6.0000000   6.0000000   6.0000000   6.0000000   6.0000000   6.0000000   6.0000000   6.0000000   6.0000000   6.0000000

  Atom        51          52          53          54          55          56          57          58          59          60
 IAtWgt=          12          12          12          12          12          12          12          12          12          12
 AtmWgt=  12.0000000  12.0000000  12.0000000  12.0000000  12.0000000  12.0000000  12.0000000  12.0000000  12.0000000  12.0000000
 NucSpn=           0           0           0           0           0           0           0           0           0           0
 AtZEff=  -0.0000000  -0.0000000  -0.0000000  -0.0000000  -0.0000000  -0.0000000  -0.0000000  -0.0000000  -0.0000000  -0.0000000
 NQMom=    0.0000000   0.0000000   0.0000000   0.0000000   0.0000000   0.0000000   0.0000000   0.0000000   0.0000000   0.0000000
 NMagM=    0.0000000   0.0000000   0.0000000   0.0000000   0.0000000   0.0000000   0.0000000   0.0000000   0.0000000   0.0000000
 AtZNuc=   6.0000000   6.0000000   6.0000000   6.0000000   6.0000000   6.0000000   6.0000000   6.0000000   6.0000000   6.0000000

  Atom        61          62          63          64          65          66          67          68          69          70
 IAtWgt=          12          12          12          12          31           1           1           1           1           1
 AtmWgt=  12.0000000  12.0000000  12.0000000  12.0000000  30.9737634   1.0078250   1.0078250   1.0078250   1.0078250   1.0078250
 NucSpn=           0           0           0           0           1           1           1           1           1           1
 AtZEff=  -0.0000000  -0.0000000  -0.0000000  -0.0000000  -0.0000000  -0.0000000  -0.0000000  -0.0000000  -0.0000000  -0.0000000
 NQMom=    0.0000000   0.0000000   0.0000000   0.0000000   0.0000000   0.0000000   0.0000000   0.0000000   0.0000000   0.0000000
 NMagM=    0.0000000   0.0000000   0.0000000   0.0000000   1.1316000   2.7928460   2.7928460   2.7928460   2.7928460   2.7928460
 AtZNuc=   6.0000000   6.0000000   6.0000000   6.0000000  15.0000000   1.0000000   1.0000000   1.0000000   1.0000000   1.0000000

  Atom        71          72          73          74          75          76          77          78          79          80
 IAtWgt=           1           1           1           1           1           1           1           1           1           1
 AtmWgt=   1.0078250   1.0078250   1.0078250   1.0078250   1.0078250   1.0078250   1.0078250   1.0078250   1.0078250   1.0078250
 NucSpn=           1           1           1           1           1           1           1           1           1           1
 AtZEff=  -0.0000000  -0.0000000  -0.0000000  -0.0000000  -0.0000000  -0.0000000  -0.0000000  -0.0000000  -0.0000000  -0.0000000
 NQMom=    0.0000000   0.0000000   0.0000000   0.0000000   0.0000000   0.0000000   0.0000000   0.0000000   0.0000000   0.0000000
 NMagM=    2.7928460   2.7928460   2.7928460   2.7928460   2.7928460   2.7928460   2.7928460   2.7928460   2.7928460   2.7928460
 AtZNuc=   1.0000000   1.0000000   1.0000000   1.0000000   1.0000000   1.0000000   1.0000000   1.0000000   1.0000000   1.0000000

  Atom        81          82          83          84          85          86          87          88          89          90
 IAtWgt=           1           1           1           1           1           1           1           1           1           1
 AtmWgt=   1.0078250   1.0078250   1.0078250   1.0078250   1.0078250   1.0078250   1.0078250   1.0078250   1.0078250   1.0078250
 NucSpn=           1           1           1           1           1           1           1           1           1           1
 AtZEff=  -0.0000000  -0.0000000  -0.0000000  -0.0000000  -0.0000000  -0.0000000  -0.0000000  -0.0000000  -0.0000000  -0.0000000
 NQMom=    0.0000000   0.0000000   0.0000000   0.0000000   0.0000000   0.0000000   0.0000000   0.0000000   0.0000000   0.0000000
 NMagM=    2.7928460   2.7928460   2.7928460   2.7928460   2.7928460   2.7928460   2.7928460   2.7928460   2.7928460   2.7928460
 AtZNuc=   1.0000000   1.0000000   1.0000000   1.0000000   1.0000000   1.0000000   1.0000000   1.0000000   1.0000000   1.0000000

  Atom        91          92          93          94          95          96          97          98          99         100
 IAtWgt=           1           1           1           1           1           1           1           1           1           1
 AtmWgt=   1.0078250   1.0078250   1.0078250   1.0078250   1.0078250   1.0078250   1.0078250   1.0078250   1.0078250   1.0078250
 NucSpn=           1           1           1           1           1           1           1           1           1           1
 AtZEff=  -0.0000000  -0.0000000  -0.0000000  -0.0000000  -0.0000000  -0.0000000  -0.0000000  -0.0000000  -0.0000000  -0.0000000
 NQMom=    0.0000000   0.0000000   0.0000000   0.0000000   0.0000000   0.0000000   0.0000000   0.0000000   0.0000000   0.0000000
 NMagM=    2.7928460   2.7928460   2.7928460   2.7928460   2.7928460   2.7928460   2.7928460   2.7928460   2.7928460   2.7928460
 AtZNuc=   1.0000000   1.0000000   1.0000000   1.0000000   1.0000000   1.0000000   1.0000000   1.0000000   1.0000000   1.0000000

  Atom       101         102         103         104         105         106         107         108         109         110
 IAtWgt=           1          16          12           1           1          12          12          19          19          19
 AtmWgt=   1.0078250  15.9949146  12.0000000   1.0078250   1.0078250  12.0000000  12.0000000  18.9984032  18.9984032  18.9984032
 NucSpn=           1           0           0           1           1           0           0           1           1           1
 AtZEff=  -0.0000000  -0.0000000  -0.0000000  -0.0000000  -0.0000000  -0.0000000  -0.0000000  -0.0000000  -0.0000000  -0.0000000
 NQMom=    0.0000000   0.0000000   0.0000000   0.0000000   0.0000000   0.0000000   0.0000000   0.0000000   0.0000000   0.0000000
 NMagM=    2.7928460   0.0000000   0.0000000   2.7928460   2.7928460   0.0000000   0.0000000   2.6288670   2.6288670   2.6288670
 AtZNuc=   1.0000000   8.0000000   6.0000000   1.0000000   1.0000000   6.0000000   6.0000000   9.0000000   9.0000000   9.0000000

  Atom       111         112
 IAtWgt=          19          19
 AtmWgt=  18.9984032  18.9984032
 NucSpn=           1           1
 AtZEff=  -0.0000000  -0.0000000
 NQMom=    0.0000000   0.0000000
 NMagM=    2.6288670   2.6288670
 AtZNuc=   9.0000000   9.0000000
 Leave Link  101 at Sat Nov 12 15:35:58 2022, MaxMem=  8053063680 cpu:               2.2 elap:               0.2
 (Enter /project/chenjingdan/g16/l123.exe)
 IRC-IRC-IRC-IRC-IRC-IRC-IRC-IRC-IRC-IRC-IRC-IRC-IRC-IRC-IRC-IRC-IRC-IRC
 ------------------------------------------------------------------------
 INPUT DATA FOR L123
 ------------------------------------------------------------------------
 GENERAL PARAMETERS:
 Follow reaction path in both directions.
 Maximum points per path      =  30
 Step size                    =   0.080 bohr
 Integration scheme           = LQA                                 
 Initial Hessian              = CalcFC
 Hessian evaluation           = All updating
 Hessian updating method      = Bofill                              
 ------------------------------------------------------------------------
 IRC-IRC-IRC-IRC-IRC-IRC-IRC-IRC-IRC-IRC-IRC-IRC-IRC-IRC-IRC-IRC-IRC-IRC
 Leave Link  123 at Sat Nov 12 15:35:58 2022, MaxMem=  8053063680 cpu:               0.7 elap:               0.1
 (Enter /project/chenjingdan/g16/l202.exe)
 Symmetry turned off by external request.
 Stoichiometry    C48H46F5N2O10P
 Framework group  C1[X(C48H46F5N2O10P)]
 Deg. of freedom   330
 Full point group                 C1      NOp   1
                          Input orientation:                          
 ---------------------------------------------------------------------
 Center     Atomic      Atomic             Coordinates (Angstroms)
 Number     Number       Type             X           Y           Z
 ---------------------------------------------------------------------
      1          8           0        1.521782    2.941048    4.447657
      2          7           0       -0.149308    1.868018    1.375667
      3          8           0       -0.355478    1.769148    4.303907
      4          8           0       -2.061008    1.597038    2.610947
      5          6           0        1.656082    3.512908    1.722297
      6          7           0       -4.087118   -1.605352   -2.458723
      7          6           0       -3.417458   -0.752252   -1.470923
      8          6           0        0.584082    2.344768    3.711077
      9          6           0       -2.065758    0.763218    0.400547
     10          6           0        0.862472    2.350788    2.303557
     11          6           0       -1.379788    1.452868    1.525437
     12          6           0       -1.355148    0.156838   -0.641283
     13          6           0       -4.141938   -0.144932   -0.440163
     14          6           0       -3.448738    0.613198    0.495087
     15          6           0       -2.040378   -0.609592   -1.572493
     16          8           0       -5.217718   -1.306252   -2.794183
     17          8           0       -3.451708   -2.549572   -2.888103
     18          1           0        1.290692    2.780568    5.374997
     19          1           0        0.297182    1.697588    0.458627
     20          1           0       -1.391188    1.677738    3.447757
     21          1           0        1.058492    4.429218    1.665837
     22          1           0        2.533602    3.702328    2.341477
     23          1           0        2.003562    3.261348    0.715777
     24          1           0       -0.273408    0.221488   -0.715543
     25          1           0       -3.992548    1.033638    1.333587
     26          8           0        2.405562    0.334868    1.800327
     27          8           0        4.081422    0.231628   -0.007953
     28          6           0        3.691692    6.492668    0.049277
     29          8           0        2.027632   -1.267492   -0.196423
     30          6           0        6.414322    2.264588   -0.088223
     31          6           0       -3.550168   -1.381852    3.110937
     32          8           0        1.698472    1.178198   -0.546443
     33          6           0        1.362432   -1.388602    4.141087
     34          6           0       -0.349278   -3.361122   -0.233513
     35          6           0        2.389012    2.826238   -3.139593
     36          6           0        3.134742    4.619798   -1.550083
     37          6           0        4.673132   -1.217592   -1.809913
     38          6           0        5.130212   -0.305772   -4.003863
     39          6           0        5.014832    4.348818   -0.097713
     40          6           0        3.958322    5.135728   -0.550563
     41          6           0        3.810972   -2.832772    0.135557
     42          6           0        4.399262    2.565778   -1.604713
     43          6           0        4.472452    0.067108   -1.331083
     44          6           0        4.670092   -2.551522   -1.085883
     45          6           0        5.250702    3.071588   -0.607383
     46          6           0        6.074832   -2.910952   -0.524023
     47          6           0        3.333452    3.347428   -2.085553
     48          6           0        4.962162   -1.399742   -3.164803
     49          6           0        4.979472    0.978998   -3.484303
     50          6           0        1.870662   -2.849982    1.606267
     51          6           0        2.571612   -2.334932    0.509417
     52          6           0        5.817122   -4.091942    0.431097
     53          6           0        4.624462    1.193908   -2.148253
     54          6           0        3.768682   -4.314442    2.049917
     55          6           0        0.495912   -2.379282    1.955157
     56          6           0        4.424972   -3.796082    0.941727
     57          6           0       -1.875118   -2.354542    1.483867
     58          6           0        2.488032   -3.856912    2.355597
     59          6           0       -0.575628   -2.680832    1.093537
     60          6           0       -1.059648   -1.370922    3.503447
     61          6           0        0.252392   -1.713252    3.170937
     62          6           0       -2.140448   -1.705682    2.687187
     63          6           0        4.315602   -3.502432   -2.265953
     64          6           0        5.008042   -2.875292   -3.491113
     65         15           0        2.490882    0.216748    0.277207
     66          1           0        1.734982    1.281498    2.188547
     67          1           0        3.199252    7.154098   -0.667693
     68          1           0        3.037982    6.409688    0.924827
     69          1           0        4.618232    6.970878    0.376547
     70          1           0        7.101662    2.899858    0.474637
     71          1           0        6.968732    1.796438   -0.906443
     72          1           0        6.067602    1.465298    0.573987
     73          1           0       -3.624758   -0.341822    3.443197
     74          1           0       -4.260398   -1.534532    2.293477
     75          1           0       -3.860358   -2.018302    3.945857
     76          1           0        1.069532   -0.541592    4.768437
     77          1           0        1.560192   -2.236722    4.806047
     78          1           0        2.288142   -1.139032    3.621657
     79          1           0        0.245762   -2.726242   -0.898833
     80          1           0       -1.301178   -3.571872   -0.727883
     81          1           0        0.195952   -4.302242   -0.111493
     82          1           0        2.862322    2.782378   -4.125243
     83          1           0        2.050892    1.820758   -2.879433
     84          1           0        1.515022    3.476888   -3.219323
     85          1           0        2.305282    5.220428   -1.917993
     86          1           0        5.364022   -0.445692   -5.055023
     87          1           0        5.678652    4.738818    0.671197
     88          1           0        6.451162   -2.052732    0.042757
     89          1           0        6.792382   -3.136832   -1.317993
     90          1           0        5.116842    1.844058   -4.126363
     91          1           0        6.552472   -4.153192    1.237797
     92          1           0        5.843252   -5.049602   -0.103153
     93          1           0        4.245292   -5.063742    2.674837
     94          1           0       -2.702098   -2.611852    0.823487
     95          1           0        1.951312   -4.267492    3.205947
     96          1           0       -1.240188   -0.841882    4.437677
     97          1           0        4.618802   -4.534932   -2.070813
     98          1           0        3.229722   -3.487782   -2.408563
     99          1           0        4.502562   -3.111812   -4.431203
    100          1           0        6.043992   -3.223702   -3.584553
    101          1           0       -1.516498   -1.131982   -2.364153
    102          8           0       -5.473658   -0.377682   -0.258503
    103          6           0       -6.324128    0.587268   -0.851233
    104          1           0       -6.253068    1.549388   -0.330523
    105          1           0       -6.098498    0.708598   -1.914113
    106          6           0       -7.730818    0.047218   -0.707083
    107          6           0       -8.782498    0.986208   -1.305403
    108          9           0       -7.846938   -1.140842   -1.326983
    109          9           0       -8.038788   -0.118522    0.597667
    110          9           0       -8.717078    2.178978   -0.704653
    111          9           0       -8.551648    1.159388   -2.608033
    112          9           0      -10.001758    0.490418   -1.144103
 ---------------------------------------------------------------------
 Rotational constants (GHZ):           0.0539662           0.0217495           0.0206202
 Leave Link  202 at Sat Nov 12 15:35:58 2022, MaxMem=  8053063680 cpu:               0.5 elap:               0.1
 (Enter /project/chenjingdan/g16/l301.exe)
 Standard basis: 6-31G(d,p) (6D, 7F)
 Ernie: Thresh=  0.10000D-02 Tol=  0.10000D-05 Strict=F.
  1224 basis functions,  2194 primitive gaussians,  1224 cartesian basis functions
   244 alpha electrons      244 beta electrons
       nuclear repulsion energy     11577.1674158997 Hartrees.
 IExCor= 4336 DFT=T Ex+Corr=M062X ExCW=0 ScaHFX=  0.540000
 ScaDFX=  1.000000  1.000000  1.000000  1.000000 ScalE2=  1.000000  1.000000
 IRadAn=      5 IRanWt=     -1 IRanGd=            0 ICorTp=0 IEmpDi=  4
 NAtoms=  112 NActive=  112 NUniq=  112 SFac= 1.00D+00 NAtFMM=   60 NAOKFM=T Big=T
 Integral buffers will be    131072 words long.
 Raffenetti 2 integral format.
 Two-electron integral symmetry is turned off.
 Leave Link  301 at Sat Nov 12 15:35:58 2022, MaxMem=  8053063680 cpu:               1.5 elap:               0.1
 (Enter /project/chenjingdan/g16/l302.exe)
 NPDir=0 NMtPBC=     1 NCelOv=     1 NCel=       1 NClECP=     1 NCelD=      1
         NCelK=      1 NCelE2=     1 NClLst=     1 CellRange=     0.0.
 One-electron integrals computed using PRISM.
 NBasis=  1224 RedAO= T EigKep=  2.35D-04  NBF=  1224
 NBsUse=  1224 1.00D-06 EigRej= -1.00D+00 NBFU=  1224
 Precomputing XC quadrature grid using
 IXCGrd= 4 IRadAn=           5 IRanWt=          -1 IRanGd=           0 AccXCQ= 0.00D+00.
 Generated NRdTot=       0 NPtTot=           0 NUsed=           0 NTot=          32
 NSgBfM=  1073  1067  1068  1068  1073 MxSgAt=   112 MxSgA2=   112.
 Leave Link  302 at Sat Nov 12 15:36:01 2022, MaxMem=  8053063680 cpu:              48.6 elap:               3.1
 (Enter /project/chenjingdan/g16/l303.exe)
 DipDrv:  MaxL=1.
 Leave Link  303 at Sat Nov 12 15:36:02 2022, MaxMem=  8053063680 cpu:               3.6 elap:               0.4
 (Enter /project/chenjingdan/g16/l401.exe)
 ExpMin= 9.98D-02 ExpMax= 1.94D+04 ExpMxC= 2.91D+03 IAcc=3 IRadAn=         5 AccDes= 0.00D+00
 Harris functional with IExCor= 1009 and IRadAn=       5 diagonalized for initial guess.
 HarFok:  IExCor= 1009 AccDes= 0.00D+00 IRadAn=         5 IDoV= 1 UseB2=F ITyADJ=14
 ICtDFT=  3500011 ScaDFX=  1.000000  1.000000  1.000000  1.000000
 FoFCou: FMM=F IPFlag=           0 FMFlag=      100000 FMFlg1=        2001
         NFxFlg=           0 DoJE=T BraDBF=F KetDBF=T FulRan=T
         wScrn=  0.000000 ICntrl=       500 IOpCl=  0 I1Cent=   200000004 NGrid=           0
         NMat0=    1 NMatS0=      1 NMatT0=    0 NMatD0=    1 NMtDS0=    0 NMtDT0=    0
 Symmetry not used in FoFCou.
 Harris En= -3556.25228145122    
 JPrj=0 DoOrth=F DoCkMO=F.
 Leave Link  401 at Sat Nov 12 15:36:09 2022, MaxMem=  8053063680 cpu:             111.5 elap:               7.0
 (Enter /project/chenjingdan/g16/l502.exe)
 Two-electron integral symmetry not used.
 Closed shell SCF:
 Using DIIS extrapolation, IDIIS=  1040.
 NGot=  8053063680 LenX=  8050035410 LenY=  8048536010
 Requested convergence on RMS density matrix=1.00D-08 within 128 cycles.
 Requested convergence on MAX density matrix=1.00D-06.
 Requested convergence on             energy=1.00D-06.
 No special actions if energy rises.
 Fock matrices will be formed incrementally for  20 cycles.
 Integral accuracy reduced to 1.0D-05 until final iterations.

 Cycle   1  Pass 0  IDiag  1:
 FoFJK:  IHMeth= 1 ICntrl=       0 DoSepK=F KAlg= 0 I1Cent=           0 FoldK=F
 IRaf= 690000000 NMat=       1 IRICut=       1 DoRegI=T DoRafI=F ISym2E= 0 IDoP0=0 IntGTp=1.
 FoFCou: FMM=T IPFlag=           0 FMFlag=      100000 FMFlg1=        2001
         NFxFlg=           0 DoJE=F BraDBF=F KetDBF=F FulRan=T
         wScrn=  0.000000 ICntrl=         0 IOpCl=  0 I1Cent=           0 NGrid=           0
         NMat0=    1 NMatS0=      1 NMatT0=    0 NMatD0=    1 NMtDS0=    0 NMtDT0=    0
 Symmetry not used in FoFCou.
 FMM levels:  10  Number of levels for PrismC:   9
 E= -3556.41390272993    
 DIIS: error= 2.18D-02 at cycle   1 NSaved=   1.
 NSaved= 1 IEnMin= 1 EnMin= -3556.41390272993     IErMin= 1 ErrMin= 2.18D-02
 ErrMax= 2.18D-02  0.00D+00 EMaxC= 1.00D-01 BMatC= 1.91D+00 BMatP= 1.91D+00
 IDIUse=3 WtCom= 7.82D-01 WtEn= 2.18D-01
 Coeff-Com:  0.100D+01
 Coeff-En:   0.100D+01
 Coeff:      0.100D+01
 Gap=     0.194 Goal=   None    Shift=    0.000
 GapD=    0.194 DampG=1.000 DampE=0.500 DampFc=0.5000 IDamp=-1.
 Damping current iteration by 5.00D-01
 RMSDP=1.97D-03 MaxDP=2.33D-01              OVMax= 2.02D-01

 Cycle   2  Pass 0  IDiag  1:
 RMSU=  9.75D-04    CP:  9.84D-01
 E= -3557.17347793945     Delta-E=       -0.759575209519 Rises=F Damp=T
 DIIS: error= 9.03D-03 at cycle   2 NSaved=   2.
 NSaved= 2 IEnMin= 2 EnMin= -3557.17347793945     IErMin= 2 ErrMin= 9.03D-03
 ErrMax= 9.03D-03  0.00D+00 EMaxC= 1.00D-01 BMatC= 1.62D-01 BMatP= 1.91D+00
 IDIUse=3 WtCom= 9.10D-01 WtEn= 9.03D-02
 Coeff-Com: -0.480D-01 0.105D+01
 Coeff-En:   0.000D+00 0.100D+01
 Coeff:     -0.436D-01 0.104D+01
 Gap=     0.227 Goal=   None    Shift=    0.000
 RMSDP=6.03D-04 MaxDP=9.30D-02 DE=-7.60D-01 OVMax= 1.53D-01

 Cycle   3  Pass 0  IDiag  1:
 RMSU=  5.89D-04    CP:  9.73D-01  1.07D+00
 E= -3557.89744879368     Delta-E=       -0.723970854233 Rises=F Damp=F
 DIIS: error= 7.35D-03 at cycle   3 NSaved=   3.
 NSaved= 3 IEnMin= 3 EnMin= -3557.89744879368     IErMin= 3 ErrMin= 7.35D-03
 ErrMax= 7.35D-03  0.00D+00 EMaxC= 1.00D-01 BMatC= 8.19D-02 BMatP= 1.62D-01
 IDIUse=3 WtCom= 9.27D-01 WtEn= 7.35D-02
 Coeff-Com: -0.890D-01 0.448D+00 0.641D+00
 Coeff-En:   0.000D+00 0.000D+00 0.100D+01
 Coeff:     -0.825D-01 0.415D+00 0.668D+00
 Gap=     0.200 Goal=   None    Shift=    0.000
 RMSDP=2.95D-04 MaxDP=4.03D-02 DE=-7.24D-01 OVMax= 4.46D-02

 Cycle   4  Pass 0  IDiag  1:
 RMSU=  2.21D-04    CP:  9.75D-01  1.14D+00  6.90D-01
 E= -3557.94883001795     Delta-E=       -0.051381224270 Rises=F Damp=F
 DIIS: error= 3.91D-03 at cycle   4 NSaved=   4.
 NSaved= 4 IEnMin= 4 EnMin= -3557.94883001795     IErMin= 4 ErrMin= 3.91D-03
 ErrMax= 3.91D-03  0.00D+00 EMaxC= 1.00D-01 BMatC= 1.63D-02 BMatP= 8.19D-02
 IDIUse=3 WtCom= 9.61D-01 WtEn= 3.91D-02
 Coeff-Com: -0.299D-01 0.848D-01 0.343D+00 0.602D+00
 Coeff-En:   0.000D+00 0.000D+00 0.162D+00 0.838D+00
 Coeff:     -0.287D-01 0.815D-01 0.336D+00 0.611D+00
 Gap=     0.195 Goal=   None    Shift=    0.000
 RMSDP=1.20D-04 MaxDP=1.19D-02 DE=-5.14D-02 OVMax= 2.02D-02

 Cycle   5  Pass 0  IDiag  1:
 RMSU=  5.37D-05    CP:  9.74D-01  1.13D+00  7.84D-01  5.86D-01
 E= -3557.96173421294     Delta-E=       -0.012904194989 Rises=F Damp=F
 DIIS: error= 5.65D-04 at cycle   5 NSaved=   5.
 NSaved= 5 IEnMin= 5 EnMin= -3557.96173421294     IErMin= 5 ErrMin= 5.65D-04
 ErrMax= 5.65D-04  0.00D+00 EMaxC= 1.00D-01 BMatC= 9.09D-04 BMatP= 1.63D-02
 IDIUse=3 WtCom= 9.94D-01 WtEn= 5.65D-03
 Coeff-Com: -0.103D-01 0.220D-01 0.141D+00 0.311D+00 0.537D+00
 Coeff-En:   0.000D+00 0.000D+00 0.000D+00 0.000D+00 0.100D+01
 Coeff:     -0.103D-01 0.219D-01 0.140D+00 0.309D+00 0.539D+00
 Gap=     0.196 Goal=   None    Shift=    0.000
 RMSDP=3.08D-05 MaxDP=2.99D-03 DE=-1.29D-02 OVMax= 5.58D-03

 Cycle   6  Pass 0  IDiag  1:
 RMSU=  1.73D-05    CP:  9.74D-01  1.13D+00  7.82D-01  6.46D-01  5.99D-01
 E= -3557.96252510083     Delta-E=       -0.000790887889 Rises=F Damp=F
 DIIS: error= 2.48D-04 at cycle   6 NSaved=   6.
 NSaved= 6 IEnMin= 6 EnMin= -3557.96252510083     IErMin= 6 ErrMin= 2.48D-04
 ErrMax= 2.48D-04  0.00D+00 EMaxC= 1.00D-01 BMatC= 5.86D-05 BMatP= 9.09D-04
 IDIUse=3 WtCom= 9.98D-01 WtEn= 2.48D-03
 Coeff-Com: -0.160D-02 0.170D-02 0.292D-01 0.775D-01 0.248D+00 0.645D+00
 Coeff-En:   0.000D+00 0.000D+00 0.000D+00 0.000D+00 0.000D+00 0.100D+01
 Coeff:     -0.159D-02 0.170D-02 0.291D-01 0.773D-01 0.247D+00 0.646D+00
 Gap=     0.196 Goal=   None    Shift=    0.000
 RMSDP=8.61D-06 MaxDP=1.23D-03 DE=-7.91D-04 OVMax= 1.41D-03

 Cycle   7  Pass 0  IDiag  1:
 RMSU=  5.64D-06    CP:  9.74D-01  1.13D+00  7.86D-01  6.45D-01  6.80D-01
                    CP:  7.68D-01
 E= -3557.96258683499     Delta-E=       -0.000061734159 Rises=F Damp=F
 DIIS: error= 1.46D-04 at cycle   7 NSaved=   7.
 NSaved= 7 IEnMin= 7 EnMin= -3557.96258683499     IErMin= 7 ErrMin= 1.46D-04
 ErrMax= 1.46D-04  0.00D+00 EMaxC= 1.00D-01 BMatC= 1.03D-05 BMatP= 5.86D-05
 IDIUse=3 WtCom= 9.99D-01 WtEn= 1.46D-03
 Coeff-Com:  0.357D-03-0.176D-02-0.859D-03 0.513D-02 0.766D-01 0.353D+00
 Coeff-Com:  0.568D+00
 Coeff-En:   0.000D+00 0.000D+00 0.000D+00 0.000D+00 0.000D+00 0.000D+00
 Coeff-En:   0.100D+01
 Coeff:      0.357D-03-0.176D-02-0.858D-03 0.512D-02 0.765D-01 0.352D+00
 Coeff:      0.569D+00
 Gap=     0.196 Goal=   None    Shift=    0.000
 RMSDP=3.33D-06 MaxDP=5.97D-04 DE=-6.17D-05 OVMax= 7.28D-04

 Initial convergence to 1.0D-05 achieved.  Increase integral accuracy.
 Cycle   8  Pass 1  IDiag  1:
 E= -3557.96229607226     Delta-E=        0.000290762729 Rises=F Damp=F
 DIIS: error= 2.76D-04 at cycle   1 NSaved=   1.
 NSaved= 1 IEnMin= 1 EnMin= -3557.96229607226     IErMin= 1 ErrMin= 2.76D-04
 ErrMax= 2.76D-04  0.00D+00 EMaxC= 1.00D-01 BMatC= 7.16D-05 BMatP= 7.16D-05
 IDIUse=3 WtCom= 9.97D-01 WtEn= 2.76D-03
 Coeff-Com:  0.100D+01
 Coeff-En:   0.100D+01
 Coeff:      0.100D+01
 Gap=     0.196 Goal=   None    Shift=    0.000
 RMSDP=3.33D-06 MaxDP=5.97D-04 DE= 2.91D-04 OVMax= 7.47D-04

 Cycle   9  Pass 1  IDiag  1:
 RMSU=  1.27D-04    CP:  1.00D+00
 E= -3557.96235418507     Delta-E=       -0.000058112806 Rises=F Damp=F
 DIIS: error= 1.25D-04 at cycle   2 NSaved=   2.
 NSaved= 2 IEnMin= 2 EnMin= -3557.96235418507     IErMin= 2 ErrMin= 1.25D-04
 ErrMax= 1.25D-04  0.00D+00 EMaxC= 1.00D-01 BMatC= 4.14D-06 BMatP= 7.16D-05
 IDIUse=3 WtCom= 9.99D-01 WtEn= 1.25D-03
 Coeff-Com:  0.602D-01 0.940D+00
 Coeff-En:   0.000D+00 0.100D+01
 Coeff:      0.602D-01 0.940D+00
 Gap=     0.196 Goal=   None    Shift=    0.000
 RMSDP=4.99D-06 MaxDP=8.29D-04 DE=-5.81D-05 OVMax= 1.06D-03

 Cycle  10  Pass 1  IDiag  1:
 RMSU=  3.83D-06    CP:  1.00D+00  1.03D+00
 E= -3557.96234775948     Delta-E=        0.000006425586 Rises=F Damp=F
 DIIS: error= 2.28D-04 at cycle   3 NSaved=   3.
 NSaved= 3 IEnMin= 2 EnMin= -3557.96235418507     IErMin= 2 ErrMin= 1.25D-04
 ErrMax= 2.28D-04  0.00D+00 EMaxC= 1.00D-01 BMatC= 1.27D-05 BMatP= 4.14D-06
 IDIUse=3 WtCom= 3.99D-01 WtEn= 6.01D-01
 Coeff-Com: -0.142D-01 0.645D+00 0.369D+00
 Coeff-En:   0.000D+00 0.705D+00 0.295D+00
 Coeff:     -0.568D-02 0.681D+00 0.325D+00
 Gap=     0.196 Goal=   None    Shift=    0.000
 RMSDP=2.07D-06 MaxDP=4.92D-04 DE= 6.43D-06 OVMax= 6.62D-04

 Cycle  11  Pass 1  IDiag  1:
 RMSU=  6.78D-07    CP:  1.00D+00  1.03D+00  4.97D-01
 E= -3557.96235730895     Delta-E=       -0.000009549469 Rises=F Damp=F
 DIIS: error= 2.48D-05 at cycle   4 NSaved=   4.
 NSaved= 4 IEnMin= 4 EnMin= -3557.96235730895     IErMin= 4 ErrMin= 2.48D-05
 ErrMax= 2.48D-05  0.00D+00 EMaxC= 1.00D-01 BMatC= 1.85D-07 BMatP= 4.14D-06
 IDIUse=1 WtCom= 1.00D+00 WtEn= 0.00D+00
 Coeff-Com: -0.717D-02 0.292D+00 0.973D-01 0.618D+00
 Coeff:     -0.717D-02 0.292D+00 0.973D-01 0.618D+00
 Gap=     0.196 Goal=   None    Shift=    0.000
 RMSDP=3.42D-07 MaxDP=6.00D-05 DE=-9.55D-06 OVMax= 7.16D-05

 Cycle  12  Pass 1  IDiag  1:
 RMSU=  1.90D-07    CP:  1.00D+00  1.03D+00  4.26D-01  1.09D+00
 E= -3557.96235745654     Delta-E=       -0.000000147587 Rises=F Damp=F
 DIIS: error= 1.67D-06 at cycle   5 NSaved=   5.
 NSaved= 5 IEnMin= 5 EnMin= -3557.96235745654     IErMin= 5 ErrMin= 1.67D-06
 ErrMax= 1.67D-06  0.00D+00 EMaxC= 1.00D-01 BMatC= 4.15D-09 BMatP= 1.85D-07
 IDIUse=1 WtCom= 1.00D+00 WtEn= 0.00D+00
 Coeff-Com: -0.778D-03 0.205D-01-0.196D-01 0.280D+00 0.720D+00
 Coeff:     -0.778D-03 0.205D-01-0.196D-01 0.280D+00 0.720D+00
 Gap=     0.196 Goal=   None    Shift=    0.000
 RMSDP=8.94D-08 MaxDP=6.90D-06 DE=-1.48D-07 OVMax= 2.16D-05

 Cycle  13  Pass 1  IDiag  1:
 RMSU=  6.74D-08    CP:  1.00D+00  1.03D+00  4.30D-01  1.15D+00  8.33D-01
 E= -3557.96235746087     Delta-E=       -0.000000004329 Rises=F Damp=F
 DIIS: error= 5.00D-07 at cycle   6 NSaved=   6.
 NSaved= 6 IEnMin= 6 EnMin= -3557.96235746087     IErMin= 6 ErrMin= 5.00D-07
 ErrMax= 5.00D-07  0.00D+00 EMaxC= 1.00D-01 BMatC= 8.64D-10 BMatP= 4.15D-09
 IDIUse=1 WtCom= 1.00D+00 WtEn= 0.00D+00
 Coeff-Com:  0.852D-03-0.405D-01-0.278D-01 0.450D-01 0.378D+00 0.644D+00
 Coeff:      0.852D-03-0.405D-01-0.278D-01 0.450D-01 0.378D+00 0.644D+00
 Gap=     0.196 Goal=   None    Shift=    0.000
 RMSDP=3.79D-08 MaxDP=2.99D-06 DE=-4.33D-09 OVMax= 9.43D-06

 Cycle  14  Pass 1  IDiag  1:
 RMSU=  3.11D-08    CP:  1.00D+00  1.03D+00  4.31D-01  1.17D+00  9.20D-01
                    CP:  8.97D-01
 E= -3557.96235746198     Delta-E=       -0.000000001113 Rises=F Damp=F
 DIIS: error= 1.58D-07 at cycle   7 NSaved=   7.
 NSaved= 7 IEnMin= 7 EnMin= -3557.96235746198     IErMin= 7 ErrMin= 1.58D-07
 ErrMax= 1.58D-07  0.00D+00 EMaxC= 1.00D-01 BMatC= 7.19D-11 BMatP= 8.64D-10
 IDIUse=1 WtCom= 1.00D+00 WtEn= 0.00D+00
 Coeff-Com:  0.391D-03-0.170D-01-0.808D-02-0.123D-01 0.602D-01 0.244D+00
 Coeff-Com:  0.733D+00
 Coeff:      0.391D-03-0.170D-01-0.808D-02-0.123D-01 0.602D-01 0.244D+00
 Coeff:      0.733D+00
 Gap=     0.196 Goal=   None    Shift=    0.000
 RMSDP=1.47D-08 MaxDP=1.25D-06 DE=-1.11D-09 OVMax= 5.74D-06

 Cycle  15  Pass 1  IDiag  1:
 RMSU=  1.18D-08    CP:  1.00D+00  1.03D+00  4.31D-01  1.17D+00  9.19D-01
                    CP:  1.01D+00  1.05D+00
 E= -3557.96235746214     Delta-E=       -0.000000000155 Rises=F Damp=F
 DIIS: error= 1.15D-07 at cycle   8 NSaved=   8.
 NSaved= 8 IEnMin= 8 EnMin= -3557.96235746214     IErMin= 8 ErrMin= 1.15D-07
 ErrMax= 1.15D-07  0.00D+00 EMaxC= 1.00D-01 BMatC= 1.97D-11 BMatP= 7.19D-11
 IDIUse=1 WtCom= 1.00D+00 WtEn= 0.00D+00
 Coeff-Com: -0.212D-04 0.180D-02 0.298D-02-0.172D-01-0.659D-01-0.449D-01
 Coeff-Com:  0.353D+00 0.770D+00
 Coeff:     -0.212D-04 0.180D-02 0.298D-02-0.172D-01-0.659D-01-0.449D-01
 Coeff:      0.353D+00 0.770D+00
 Gap=     0.196 Goal=   None    Shift=    0.000
 RMSDP=8.28D-09 MaxDP=1.08D-06 DE=-1.55D-10 OVMax= 3.06D-06

 Cycle  16  Pass 1  IDiag  1:
 RMSU=  4.97D-09    CP:  1.00D+00  1.03D+00  4.31D-01  1.17D+00  9.27D-01
                    CP:  1.06D+00  1.23D+00  9.29D-01
 E= -3557.96235746237     Delta-E=       -0.000000000231 Rises=F Damp=F
 DIIS: error= 4.59D-08 at cycle   9 NSaved=   9.
 NSaved= 9 IEnMin= 9 EnMin= -3557.96235746237     IErMin= 9 ErrMin= 4.59D-08
 ErrMax= 4.59D-08  0.00D+00 EMaxC= 1.00D-01 BMatC= 3.79D-12 BMatP= 1.97D-11
 IDIUse=1 WtCom= 1.00D+00 WtEn= 0.00D+00
 Coeff-Com: -0.691D-04 0.345D-02 0.269D-02-0.672D-02-0.416D-01-0.595D-01
 Coeff-Com:  0.753D-01 0.388D+00 0.638D+00
 Coeff:     -0.691D-04 0.345D-02 0.269D-02-0.672D-02-0.416D-01-0.595D-01
 Coeff:      0.753D-01 0.388D+00 0.638D+00
 Gap=     0.196 Goal=   None    Shift=    0.000
 RMSDP=3.04D-09 MaxDP=4.19D-07 DE=-2.31D-10 OVMax= 1.27D-06

 SCF Done:  E(RM062X) =  -3557.96235746     A.U. after   16 cycles
            NFock= 16  Conv=0.30D-08     -V/T= 2.0077
 KE= 3.530909539950D+03 PE=-3.147897286750D+04 EE= 1.281293355419D+04
 Leave Link  502 at Sat Nov 12 15:42:08 2022, MaxMem=  8053063680 cpu:            5670.7 elap:             359.5
 (Enter /project/chenjingdan/g16/l801.exe)
 DoSCS=F DFT=T ScalE2(SS,OS)=  1.000000  1.000000
 Range of M.O.s used for correlation:     1  1224
 NBasis=  1224 NAE=   244 NBE=   244 NFC=     0 NFV=     0
 NROrb=   1224 NOA=   244 NOB=   244 NVA=   980 NVB=   980
 Leave Link  801 at Sat Nov 12 15:42:08 2022, MaxMem=  8053063680 cpu:               1.2 elap:               0.1
 (Enter /project/chenjingdan/g16/l1101.exe)
 Using compressed storage, NAtomX=   112.
 Will process    113 centers per pass.
 Leave Link 1101 at Sat Nov 12 15:42:17 2022, MaxMem=  8053063680 cpu:             119.2 elap:               8.3
 (Enter /project/chenjingdan/g16/l1102.exe)
 Symmetrizing basis deriv contribution to polar:
 IMax=3 JMax=2 DiffMx= 0.00D+00
 Leave Link 1102 at Sat Nov 12 15:42:18 2022, MaxMem=  8053063680 cpu:               2.8 elap:               0.3
 (Enter /project/chenjingdan/g16/l1110.exe)
 Forming Gx(P) for the SCF density, NAtomX=   112.
 Integral derivatives from FoFJK, PRISM(SPDF).
 Do as many integral derivatives as possible in FoFJK.
 G2DrvN: MDV=    8053052008.
 G2DrvN: will do   113 centers at a time, making    1 passes.
 Calling FoFCou, ICntrl=  3107 FMM=T I1Cent=   0 AccDes= 0.00D+00.
 FoFJK:  IHMeth= 1 ICntrl=    3107 DoSepK=F KAlg= 0 I1Cent=           0 FoldK=F
 IRaf=         0 NMat=       1 IRICut=       1 DoRegI=T DoRafI=F ISym2E= 0 IDoP0=0 IntGTp=1.
 FoFCou: FMM=T IPFlag=           0 FMFlag=      100000 FMFlg1=        2001
         NFxFlg=           0 DoJE=F BraDBF=F KetDBF=F FulRan=T
         wScrn=  0.000000 ICntrl=      3107 IOpCl=  0 I1Cent=           0 NGrid=           0
         NMat0=    1 NMatS0=      1 NMatT0=    0 NMatD0=    1 NMtDS0=    0 NMtDT0=    0
 Symmetry not used in FoFCou.
 FMM levels:  10  Number of levels for PrismC:   9
 End of G2Drv F.D. properties file   721 does not exist.
 End of G2Drv F.D. properties file   722 does not exist.
 End of G2Drv F.D. properties file   788 does not exist.
 Leave Link 1110 at Sat Nov 12 16:16:44 2022, MaxMem=  8053063680 cpu:           33001.6 elap:            2065.2
 (Enter /project/chenjingdan/g16/l1002.exe)
 Minotr:  Closed shell wavefunction.
          IDoAtm=11111111111111111111111111111111111111111111111111
          IDoAtm=11111111111111111111111111111111111111111111111111
          IDoAtm=111111111111
          Direct CPHF calculation.
          Differentiating once with respect to nuclear coordinates.
          Requested convergence is 1.0D-08 RMS, and 1.0D-07 maximum.
          Secondary convergence is 1.0D-12 RMS, and 1.0D-12 maximum.
          NewPWx=T KeepS1=F KeepF1=F KeepIn=T MapXYZ=F SortEE=F KeepMc=T.
        34343 words used for storage of precomputed grid.
 Two-electron integral symmetry not used.
          MDV=    8053063680 using IRadAn=       1.
          Solving linear equations simultaneously, MaxMat=      72.
 FoF2E skips out because all densities are zero.
 CalDSu exits because no D1Ps are significant.
 FoFJK:  IHMeth= 1 ICntrl=       0 DoSepK=F KAlg= 0 I1Cent=           0 FoldK=F
 IRaf= 620000000 NMat=      72 IRICut=       1 DoRegI=T DoRafI=F ISym2E= 0 IDoP0=0 IntGTp=1.
 FoFCou: FMM=T IPFlag=           0 FMFlag=      100000 FMFlg1=        2001
         NFxFlg=           0 DoJE=F BraDBF=F KetDBF=F FulRan=T
         wScrn=  0.000000 ICntrl=         0 IOpCl=  0 I1Cent=           0 NGrid=           0
         NMat0=   72 NMatS0=     72 NMatT0=    0 NMatD0=   72 NMtDS0=    0 NMtDT0=    0
 Symmetry not used in FoFCou.
 FMM levels:  10  Number of levels for PrismC:   9
          There are   339 degrees of freedom in the 1st order CPHF.  IDoFFX=6 NUNeed=     0.
    333 vectors produced by pass  0 Test12= 2.39D-13 1.00D-09 XBig12= 2.01D-01 1.45D-01.
 AX will form    72 AO Fock derivatives at one time.
    333 vectors produced by pass  1 Test12= 2.39D-13 1.00D-09 XBig12= 1.18D-01 8.21D-02.
    333 vectors produced by pass  2 Test12= 2.39D-13 1.00D-09 XBig12= 3.01D-03 8.91D-03.
    333 vectors produced by pass  3 Test12= 2.39D-13 1.00D-09 XBig12= 2.72D-05 4.97D-04.
    333 vectors produced by pass  4 Test12= 2.39D-13 1.00D-09 XBig12= 2.31D-07 5.28D-05.
    333 vectors produced by pass  5 Test12= 2.39D-13 1.00D-09 XBig12= 1.01D-09 2.27D-06.
    217 vectors produced by pass  6 Test12= 2.39D-13 1.00D-09 XBig12= 3.53D-12 1.07D-07.
     16 vectors produced by pass  7 Test12= 2.39D-13 1.00D-09 XBig12= 9.72D-15 8.23D-09.
      3 vectors produced by pass  8 Test12= 2.39D-13 1.00D-09 XBig12= 2.23D-14 3.14D-09.
      1 vectors produced by pass  9 Test12= 2.39D-13 1.00D-09 XBig12= 1.06D-14 3.02D-09.
 InvSVY:  IOpt=1 It=  1 EMax= 7.22D-16
 Solved reduced A of dimension  2235 with   339 vectors.
 End of Minotr F.D. properties file   721 does not exist.
 End of Minotr F.D. properties file   722 does not exist.
 End of Minotr F.D. properties file   788 does not exist.
 Leave Link 1002 at Sat Nov 12 18:13:55 2022, MaxMem=  8053063680 cpu:          112100.8 elap:            7030.4
 (Enter /project/chenjingdan/g16/l601.exe)
 Copying SCF densities to generalized density rwf, IOpCl= 0 IROHF=0.
 Hyperfine terms turned off by default for NAtoms > 100.

 **********************************************************************

            Population analysis using the SCF Density.

 **********************************************************************

 Alpha  occ. eigenvalues --  -78.20336 -25.30714 -25.30623 -25.30434 -25.28447
 Alpha  occ. eigenvalues --  -25.28254 -19.71030 -19.69826 -19.69046 -19.69007
 Alpha  occ. eigenvalues --  -19.68933 -19.67966 -19.67956 -19.66663 -19.63184
 Alpha  occ. eigenvalues --  -19.60990 -15.02554 -14.84300 -10.81813 -10.74321
 Alpha  occ. eigenvalues --  -10.71630 -10.71356 -10.65774 -10.63788 -10.63643
 Alpha  occ. eigenvalues --  -10.61309 -10.61304 -10.61049 -10.59726 -10.59433
 Alpha  occ. eigenvalues --  -10.59392 -10.59046 -10.57361 -10.55855 -10.55841
 Alpha  occ. eigenvalues --  -10.55642 -10.55609 -10.55514 -10.55494 -10.55316
 Alpha  occ. eigenvalues --  -10.55282 -10.55267 -10.55244 -10.55160 -10.55153
 Alpha  occ. eigenvalues --  -10.55051 -10.55045 -10.55009 -10.54984 -10.54946
 Alpha  occ. eigenvalues --  -10.54883 -10.54851 -10.54837 -10.54782 -10.54769
 Alpha  occ. eigenvalues --  -10.54445 -10.53885 -10.53635 -10.53559 -10.53461
 Alpha  occ. eigenvalues --  -10.53282 -10.53253 -10.53166 -10.52835 -10.52653
 Alpha  occ. eigenvalues --  -10.52537  -6.98389  -5.10201  -5.10130  -5.10049
 Alpha  occ. eigenvalues --   -1.48160  -1.41997  -1.38694  -1.38596  -1.37976
 Alpha  occ. eigenvalues --   -1.35733  -1.26699  -1.23536  -1.22765  -1.22456
 Alpha  occ. eigenvalues --   -1.19265  -1.17501  -1.16086  -1.12744  -1.09201
 Alpha  occ. eigenvalues --   -1.07974  -1.01610  -0.99730  -0.97400  -0.96390
 Alpha  occ. eigenvalues --   -0.95600  -0.94172  -0.92881  -0.92769  -0.90354
 Alpha  occ. eigenvalues --   -0.90014  -0.88336  -0.87725  -0.87052  -0.86923
 Alpha  occ. eigenvalues --   -0.86790  -0.85475  -0.84179  -0.83748  -0.82344
 Alpha  occ. eigenvalues --   -0.81962  -0.81695  -0.79071  -0.78436  -0.78286
 Alpha  occ. eigenvalues --   -0.78180  -0.76700  -0.76094  -0.75984  -0.75826
 Alpha  occ. eigenvalues --   -0.75791  -0.75634  -0.73788  -0.72233  -0.71426
 Alpha  occ. eigenvalues --   -0.71366  -0.71088  -0.70763  -0.70644  -0.70224
 Alpha  occ. eigenvalues --   -0.69215  -0.68813  -0.67334  -0.67183  -0.66777
 Alpha  occ. eigenvalues --   -0.66229  -0.65634  -0.64574  -0.64275  -0.64211
 Alpha  occ. eigenvalues --   -0.64103  -0.63878  -0.63132  -0.63082  -0.62045
 Alpha  occ. eigenvalues --   -0.61470  -0.61169  -0.60471  -0.60283  -0.59572
 Alpha  occ. eigenvalues --   -0.58807  -0.57803  -0.57725  -0.57576  -0.57288
 Alpha  occ. eigenvalues --   -0.57209  -0.56584  -0.56295  -0.56027  -0.55576
 Alpha  occ. eigenvalues --   -0.55079  -0.55039  -0.55016  -0.54867  -0.54645
 Alpha  occ. eigenvalues --   -0.54219  -0.54080  -0.53635  -0.53500  -0.53210
 Alpha  occ. eigenvalues --   -0.53081  -0.52805  -0.52146  -0.52093  -0.51630
 Alpha  occ. eigenvalues --   -0.51472  -0.51051  -0.51038  -0.50434  -0.50352
 Alpha  occ. eigenvalues --   -0.49649  -0.49108  -0.48818  -0.48643  -0.48569
 Alpha  occ. eigenvalues --   -0.48460  -0.48388  -0.48099  -0.47618  -0.47426
 Alpha  occ. eigenvalues --   -0.47023  -0.46836  -0.46727  -0.46683  -0.46366
 Alpha  occ. eigenvalues --   -0.46054  -0.45964  -0.45730  -0.45692  -0.45564
 Alpha  occ. eigenvalues --   -0.45337  -0.45209  -0.45119  -0.44903  -0.44840
 Alpha  occ. eigenvalues --   -0.44766  -0.44567  -0.43950  -0.43180  -0.43143
 Alpha  occ. eigenvalues --   -0.42789  -0.42406  -0.42110  -0.41738  -0.41491
 Alpha  occ. eigenvalues --   -0.41380  -0.41346  -0.41317  -0.40901  -0.40457
 Alpha  occ. eigenvalues --   -0.40322  -0.39734  -0.39555  -0.39300  -0.38957
 Alpha  occ. eigenvalues --   -0.38922  -0.38804  -0.38736  -0.38509  -0.38362
 Alpha  occ. eigenvalues --   -0.37993  -0.37748  -0.37608  -0.37483  -0.37432
 Alpha  occ. eigenvalues --   -0.37038  -0.36797  -0.36363  -0.34971  -0.33517
 Alpha  occ. eigenvalues --   -0.30070  -0.29749  -0.29431  -0.28689  -0.28201
 Alpha  occ. eigenvalues --   -0.27819  -0.27726  -0.26843  -0.26577
 Alpha virt. eigenvalues --   -0.06953  -0.00998  -0.00696   0.01822   0.01895
 Alpha virt. eigenvalues --    0.02696   0.02981   0.03375   0.04367   0.04941
 Alpha virt. eigenvalues --    0.05242   0.05458   0.06594   0.09264   0.10147
 Alpha virt. eigenvalues --    0.10715   0.12385   0.12825   0.13762   0.14040
 Alpha virt. eigenvalues --    0.14253   0.14424   0.14499   0.14900   0.15598
 Alpha virt. eigenvalues --    0.15600   0.15962   0.16163   0.16641   0.16782
 Alpha virt. eigenvalues --    0.17227   0.17448   0.17835   0.18054   0.18175
 Alpha virt. eigenvalues --    0.18485   0.18583   0.18743   0.18927   0.19040
 Alpha virt. eigenvalues --    0.19090   0.19307   0.19589   0.19681   0.19861
 Alpha virt. eigenvalues --    0.20141   0.20516   0.20867   0.21236   0.21331
 Alpha virt. eigenvalues --    0.21562   0.21819   0.22006   0.22106   0.22329
 Alpha virt. eigenvalues --    0.22519   0.22782   0.22941   0.23086   0.23477
 Alpha virt. eigenvalues --    0.23634   0.23952   0.24215   0.24294   0.24700
 Alpha virt. eigenvalues --    0.25020   0.25293   0.25591   0.25831   0.25951
 Alpha virt. eigenvalues --    0.26287   0.26855   0.26965   0.27164   0.27477
 Alpha virt. eigenvalues --    0.27955   0.28082   0.28358   0.28670   0.28875
 Alpha virt. eigenvalues --    0.29046   0.29305   0.29451   0.29662   0.29938
 Alpha virt. eigenvalues --    0.30287   0.30529   0.31202   0.31339   0.31430
 Alpha virt. eigenvalues --    0.31839   0.31887   0.32158   0.32293   0.32457
 Alpha virt. eigenvalues --    0.32593   0.32666   0.33009   0.33303   0.33922
 Alpha virt. eigenvalues --    0.34224   0.35032   0.35330   0.36512   0.37364
 Alpha virt. eigenvalues --    0.37744   0.37852   0.38208   0.38958   0.39312
 Alpha virt. eigenvalues --    0.39690   0.40455   0.40980   0.41430   0.41780
 Alpha virt. eigenvalues --    0.42193   0.42484   0.42959   0.43000   0.43377
 Alpha virt. eigenvalues --    0.43741   0.43978   0.44352   0.44445   0.45009
 Alpha virt. eigenvalues --    0.45599   0.46130   0.46620   0.46920   0.48237
 Alpha virt. eigenvalues --    0.48430   0.49281   0.49970   0.50504   0.51173
 Alpha virt. eigenvalues --    0.51491   0.52676   0.52771   0.53079   0.53456
 Alpha virt. eigenvalues --    0.53819   0.54293   0.54555   0.54923   0.55305
 Alpha virt. eigenvalues --    0.55533   0.55548   0.55876   0.55952   0.56028
 Alpha virt. eigenvalues --    0.56336   0.56505   0.56655   0.56746   0.57171
 Alpha virt. eigenvalues --    0.57289   0.57764   0.58100   0.58274   0.58357
 Alpha virt. eigenvalues --    0.59029   0.59310   0.59508   0.59708   0.60063
 Alpha virt. eigenvalues --    0.60278   0.60354   0.60811   0.60970   0.61170
 Alpha virt. eigenvalues --    0.61386   0.61549   0.62076   0.62260   0.62592
 Alpha virt. eigenvalues --    0.62880   0.63071   0.63092   0.63405   0.63812
 Alpha virt. eigenvalues --    0.64054   0.64283   0.64699   0.64805   0.65207
 Alpha virt. eigenvalues --    0.65266   0.65524   0.65720   0.65999   0.66150
 Alpha virt. eigenvalues --    0.66806   0.67296   0.67482   0.67600   0.67813
 Alpha virt. eigenvalues --    0.67895   0.68366   0.68685   0.69081   0.69212
 Alpha virt. eigenvalues --    0.69809   0.70446   0.70515   0.70858   0.71358
 Alpha virt. eigenvalues --    0.71478   0.71664   0.72464   0.72710   0.73404
 Alpha virt. eigenvalues --    0.73674   0.73786   0.74030   0.74481   0.74879
 Alpha virt. eigenvalues --    0.75175   0.75742   0.76201   0.76643   0.76919
 Alpha virt. eigenvalues --    0.77223   0.77600   0.77997   0.78120   0.78579
 Alpha virt. eigenvalues --    0.78748   0.79005   0.79082   0.79140   0.79796
 Alpha virt. eigenvalues --    0.80368   0.80414   0.80693   0.81121   0.81644
 Alpha virt. eigenvalues --    0.81762   0.82071   0.82487   0.82889   0.82927
 Alpha virt. eigenvalues --    0.83189   0.83802   0.83885   0.84376   0.84638
 Alpha virt. eigenvalues --    0.85019   0.85055   0.85371   0.85623   0.86175
 Alpha virt. eigenvalues --    0.86302   0.86595   0.87071   0.87559   0.87640
 Alpha virt. eigenvalues --    0.87738   0.88302   0.88427   0.88623   0.88891
 Alpha virt. eigenvalues --    0.89143   0.89269   0.89427   0.89576   0.89764
 Alpha virt. eigenvalues --    0.89844   0.90386   0.90638   0.90808   0.91642
 Alpha virt. eigenvalues --    0.91867   0.92057   0.92465   0.92780   0.92985
 Alpha virt. eigenvalues --    0.93083   0.93472   0.93589   0.93921   0.94453
 Alpha virt. eigenvalues --    0.94539   0.94787   0.95074   0.95354   0.95441
 Alpha virt. eigenvalues --    0.95778   0.96140   0.96322   0.96549   0.96802
 Alpha virt. eigenvalues --    0.97105   0.97452   0.97568   0.97967   0.98047
 Alpha virt. eigenvalues --    0.98471   0.98675   0.98827   0.99193   0.99442
 Alpha virt. eigenvalues --    0.99981   1.00479   1.00635   1.00988   1.01433
 Alpha virt. eigenvalues --    1.01476   1.01924   1.01993   1.02334   1.02623
 Alpha virt. eigenvalues --    1.03058   1.03371   1.03664   1.04330   1.04816
 Alpha virt. eigenvalues --    1.05029   1.05558   1.05642   1.06298   1.06404
 Alpha virt. eigenvalues --    1.06704   1.07185   1.07736   1.08160   1.08607
 Alpha virt. eigenvalues --    1.08844   1.09167   1.09297   1.09776   1.09986
 Alpha virt. eigenvalues --    1.10226   1.10448   1.10617   1.11116   1.11423
 Alpha virt. eigenvalues --    1.11880   1.12285   1.12674   1.13086   1.13169
 Alpha virt. eigenvalues --    1.13825   1.13915   1.14406   1.14635   1.15091
 Alpha virt. eigenvalues --    1.15255   1.15666   1.16244   1.16439   1.16944
 Alpha virt. eigenvalues --    1.17786   1.18001   1.18676   1.19039   1.19450
 Alpha virt. eigenvalues --    1.19693   1.20229   1.20387   1.20778   1.21550
 Alpha virt. eigenvalues --    1.22309   1.22552   1.22958   1.23214   1.23425
 Alpha virt. eigenvalues --    1.24139   1.24489   1.24648   1.24959   1.25512
 Alpha virt. eigenvalues --    1.25714   1.25971   1.26210   1.26870   1.27498
 Alpha virt. eigenvalues --    1.27740   1.28031   1.28696   1.29213   1.29547
 Alpha virt. eigenvalues --    1.29737   1.30045   1.30670   1.30851   1.31257
 Alpha virt. eigenvalues --    1.31659   1.32069   1.32514   1.32943   1.33139
 Alpha virt. eigenvalues --    1.33540   1.34266   1.34496   1.34975   1.35388
 Alpha virt. eigenvalues --    1.36180   1.36456   1.36688   1.37108   1.37557
 Alpha virt. eigenvalues --    1.37965   1.38494   1.38736   1.38996   1.39286
 Alpha virt. eigenvalues --    1.39618   1.39988   1.40091   1.40429   1.40605
 Alpha virt. eigenvalues --    1.41188   1.41699   1.42037   1.42271   1.42338
 Alpha virt. eigenvalues --    1.42879   1.43271   1.43373   1.43469   1.43545
 Alpha virt. eigenvalues --    1.43946   1.44657   1.44854   1.45061   1.45194
 Alpha virt. eigenvalues --    1.45420   1.45609   1.46042   1.46334   1.46845
 Alpha virt. eigenvalues --    1.46879   1.47441   1.47601   1.48177   1.48537
 Alpha virt. eigenvalues --    1.49214   1.49404   1.49694   1.50139   1.50250
 Alpha virt. eigenvalues --    1.50564   1.51466   1.52228   1.52762   1.53050
 Alpha virt. eigenvalues --    1.53538   1.54020   1.55015   1.55315   1.55663
 Alpha virt. eigenvalues --    1.56582   1.56865   1.57475   1.57738   1.58381
 Alpha virt. eigenvalues --    1.59730   1.60507   1.60917   1.61325   1.62409
 Alpha virt. eigenvalues --    1.62818   1.63275   1.64077   1.64301   1.64872
 Alpha virt. eigenvalues --    1.66038   1.66332   1.66499   1.67202   1.68104
 Alpha virt. eigenvalues --    1.68928   1.69913   1.70637   1.70779   1.71340
 Alpha virt. eigenvalues --    1.71373   1.72160   1.72640   1.72781   1.73274
 Alpha virt. eigenvalues --    1.74203   1.74768   1.75050   1.75154   1.75640
 Alpha virt. eigenvalues --    1.75967   1.76507   1.76931   1.76961   1.77303
 Alpha virt. eigenvalues --    1.77603   1.78245   1.78871   1.78995   1.79199
 Alpha virt. eigenvalues --    1.79469   1.79807   1.79942   1.80437   1.80720
 Alpha virt. eigenvalues --    1.81024   1.81185   1.81519   1.81787   1.82413
 Alpha virt. eigenvalues --    1.82516   1.82691   1.82759   1.82838   1.83290
 Alpha virt. eigenvalues --    1.83868   1.84099   1.84190   1.84465   1.84644
 Alpha virt. eigenvalues --    1.85000   1.85431   1.85603   1.86100   1.86178
 Alpha virt. eigenvalues --    1.86467   1.86665   1.86702   1.86928   1.87133
 Alpha virt. eigenvalues --    1.87417   1.87779   1.88397   1.88524   1.88832
 Alpha virt. eigenvalues --    1.89059   1.89198   1.89777   1.90090   1.90191
 Alpha virt. eigenvalues --    1.90668   1.90723   1.91224   1.91738   1.92011
 Alpha virt. eigenvalues --    1.92166   1.92576   1.92993   1.93256   1.93634
 Alpha virt. eigenvalues --    1.94013   1.94167   1.94528   1.94763   1.94947
 Alpha virt. eigenvalues --    1.95205   1.95598   1.95926   1.96070   1.96990
 Alpha virt. eigenvalues --    1.97474   1.98010   1.98068   1.98565   1.98762
 Alpha virt. eigenvalues --    1.98943   1.99484   2.00079   2.00307   2.00440
 Alpha virt. eigenvalues --    2.00771   2.00897   2.01814   2.02156   2.02422
 Alpha virt. eigenvalues --    2.02673   2.03249   2.03847   2.04156   2.04271
 Alpha virt. eigenvalues --    2.04413   2.04594   2.04656   2.04996   2.05173
 Alpha virt. eigenvalues --    2.05320   2.05980   2.06176   2.06644   2.06884
 Alpha virt. eigenvalues --    2.07057   2.07186   2.07585   2.07968   2.08301
 Alpha virt. eigenvalues --    2.08484   2.08862   2.09145   2.09430   2.09636
 Alpha virt. eigenvalues --    2.10190   2.10333   2.10552   2.10580   2.11225
 Alpha virt. eigenvalues --    2.11390   2.11574   2.12035   2.12152   2.12378
 Alpha virt. eigenvalues --    2.12639   2.12851   2.13229   2.13289   2.13580
 Alpha virt. eigenvalues --    2.13750   2.14108   2.14473   2.14687   2.15080
 Alpha virt. eigenvalues --    2.15501   2.15575   2.15828   2.15959   2.16211
 Alpha virt. eigenvalues --    2.16719   2.16935   2.17098   2.17530   2.17729
 Alpha virt. eigenvalues --    2.17913   2.18367   2.18445   2.18843   2.19159
 Alpha virt. eigenvalues --    2.19325   2.19624   2.19812   2.20500   2.20828
 Alpha virt. eigenvalues --    2.21066   2.21534   2.21860   2.22517   2.22560
 Alpha virt. eigenvalues --    2.23570   2.23774   2.24046   2.24862   2.24993
 Alpha virt. eigenvalues --    2.25213   2.25767   2.26224   2.26397   2.26866
 Alpha virt. eigenvalues --    2.27264   2.27458   2.27689   2.28252   2.28551
 Alpha virt. eigenvalues --    2.29059   2.29281   2.29601   2.29956   2.30701
 Alpha virt. eigenvalues --    2.30886   2.31536   2.31712   2.32008   2.32734
 Alpha virt. eigenvalues --    2.32798   2.33316   2.33568   2.34413   2.34883
 Alpha virt. eigenvalues --    2.35176   2.35682   2.35764   2.36805   2.37073
 Alpha virt. eigenvalues --    2.37322   2.37771   2.38713   2.39338   2.39806
 Alpha virt. eigenvalues --    2.40374   2.40448   2.40644   2.41082   2.41359
 Alpha virt. eigenvalues --    2.41583   2.42078   2.42229   2.42358   2.42614
 Alpha virt. eigenvalues --    2.43209   2.43375   2.43734   2.43972   2.43985
 Alpha virt. eigenvalues --    2.44328   2.45291   2.45933   2.45956   2.46492
 Alpha virt. eigenvalues --    2.46901   2.47071   2.47299   2.47514   2.47985
 Alpha virt. eigenvalues --    2.48279   2.48585   2.48937   2.49382   2.49628
 Alpha virt. eigenvalues --    2.50439   2.50942   2.51224   2.51710   2.52438
 Alpha virt. eigenvalues --    2.52458   2.52636   2.53044   2.53707   2.53985
 Alpha virt. eigenvalues --    2.54440   2.54649   2.55231   2.55489   2.56097
 Alpha virt. eigenvalues --    2.56347   2.56934   2.57613   2.57671   2.58110
 Alpha virt. eigenvalues --    2.59341   2.59353   2.59481   2.59956   2.60237
 Alpha virt. eigenvalues --    2.60874   2.60953   2.61532   2.61709   2.62263
 Alpha virt. eigenvalues --    2.62595   2.63083   2.63629   2.63872   2.64085
 Alpha virt. eigenvalues --    2.64514   2.64625   2.65311   2.65630   2.66153
 Alpha virt. eigenvalues --    2.66446   2.66548   2.66819   2.67210   2.67528
 Alpha virt. eigenvalues --    2.68063   2.68462   2.68658   2.68746   2.69445
 Alpha virt. eigenvalues --    2.69774   2.70210   2.70426   2.71254   2.71311
 Alpha virt. eigenvalues --    2.71996   2.72199   2.72269   2.72949   2.73182
 Alpha virt. eigenvalues --    2.73409   2.73773   2.74122   2.74686   2.75032
 Alpha virt. eigenvalues --    2.75189   2.75736   2.76040   2.76612   2.77871
 Alpha virt. eigenvalues --    2.78257   2.78840   2.79100   2.79505   2.79887
 Alpha virt. eigenvalues --    2.80139   2.80563   2.80841   2.81068   2.81454
 Alpha virt. eigenvalues --    2.81787   2.82019   2.82175   2.82611   2.83097
 Alpha virt. eigenvalues --    2.83465   2.83803   2.84217   2.84743   2.85095
 Alpha virt. eigenvalues --    2.85311   2.86309   2.86814   2.86956   2.87423
 Alpha virt. eigenvalues --    2.87887   2.88269   2.88575   2.88677   2.88918
 Alpha virt. eigenvalues --    2.89142   2.89887   2.90086   2.90193   2.90352
 Alpha virt. eigenvalues --    2.90704   2.91512   2.92128   2.92380   2.93151
 Alpha virt. eigenvalues --    2.93403   2.93721   2.94356   2.94777   2.95138
 Alpha virt. eigenvalues --    2.95404   2.96641   2.96909   2.98164   2.98560
 Alpha virt. eigenvalues --    2.98893   3.00135   3.01593   3.02072   3.02567
 Alpha virt. eigenvalues --    3.03264   3.03789   3.04514   3.04920   3.07275
 Alpha virt. eigenvalues --    3.08213   3.09231   3.09502   3.10024   3.10243
 Alpha virt. eigenvalues --    3.10267   3.10819   3.12469   3.13422   3.14420
 Alpha virt. eigenvalues --    3.14545   3.17001   3.17508   3.18274   3.18488
 Alpha virt. eigenvalues --    3.18704   3.20050   3.20058   3.21340   3.21454
 Alpha virt. eigenvalues --    3.22000   3.22097   3.22400   3.22709   3.23174
 Alpha virt. eigenvalues --    3.23833   3.24687   3.25705   3.26182   3.27255
 Alpha virt. eigenvalues --    3.27380   3.27476   3.27813   3.29819   3.30033
 Alpha virt. eigenvalues --    3.30923   3.31062   3.32058   3.32276   3.32859
 Alpha virt. eigenvalues --    3.34123   3.35956   3.37255   3.40747   3.41033
 Alpha virt. eigenvalues --    3.41192   3.43004   3.43282   3.43454   3.44604
 Alpha virt. eigenvalues --    3.44766   3.44791   3.45135   3.45264   3.45655
 Alpha virt. eigenvalues --    3.45807   3.46116   3.46365   3.46686   3.47343
 Alpha virt. eigenvalues --    3.47799   3.48354   3.48610   3.49439   3.50562
 Alpha virt. eigenvalues --    3.51060   3.51607   3.57690   3.63275   3.64966
 Alpha virt. eigenvalues --    3.68863   3.69095   3.73021   3.74263   3.74723
 Alpha virt. eigenvalues --    3.76745   3.88123   3.96146   4.04326   4.06659
 Alpha virt. eigenvalues --    4.09468   4.14573   4.16090   4.17765   4.18002
 Alpha virt. eigenvalues --    4.18422   4.20167   4.20778   4.23135   4.23661
 Alpha virt. eigenvalues --    4.24585   4.25387   4.26209   4.26304   4.26540
 Alpha virt. eigenvalues --    4.30066   4.32882   4.34293   4.35517   4.36096
 Alpha virt. eigenvalues --    4.37037   4.39144   4.40080   4.40486   4.42181
 Alpha virt. eigenvalues --    4.42528   4.43960   4.44481   4.47410   4.47555
 Alpha virt. eigenvalues --    4.48454   4.49447   4.51650   4.51794   4.53674
 Alpha virt. eigenvalues --    4.54513   4.55777   4.55954   4.59045   4.60864
 Alpha virt. eigenvalues --    4.61787   4.62502   4.63244   4.63738   4.64413
 Alpha virt. eigenvalues --    4.67658   4.72149   4.74138   4.83920   4.84873
 Alpha virt. eigenvalues --    4.86826   4.87822   4.88361   4.89783   4.95029
 Alpha virt. eigenvalues --    4.96747   5.00274   5.24071   5.33946   5.78687
          Condensed to atoms (all electrons):
 Mulliken charges:
               1
     1  O   -0.511246
     2  N   -0.558407
     3  O   -0.612888
     4  O   -0.588100
     5  C   -0.339458
     6  N    0.401410
     7  C    0.205001
     8  C    0.649373
     9  C    0.016164
    10  C   -0.172696
    11  C    0.631385
    12  C   -0.109579
    13  C    0.325396
    14  C   -0.136951
    15  C   -0.126390
    16  O   -0.386284
    17  O   -0.384360
    18  H    0.360952
    19  H    0.363420
    20  H    0.453595
    21  H    0.127344
    22  H    0.156958
    23  H    0.162216
    24  H    0.181951
    25  H    0.171891
    26  O   -0.642630
    27  O   -0.622766
    28  C   -0.408111
    29  O   -0.641045
    30  C   -0.410899
    31  C   -0.407141
    32  O   -0.681724
    33  C   -0.401721
    34  C   -0.408431
    35  C   -0.393305
    36  C   -0.208123
    37  C    0.136555
    38  C   -0.149756
    39  C   -0.198325
    40  C    0.100612
    41  C    0.133756
    42  C   -0.059383
    43  C    0.217194
    44  C   -0.144767
    45  C    0.104494
    46  C   -0.211168
    47  C    0.121628
    48  C    0.028645
    49  C   -0.148916
    50  C    0.000342
    51  C    0.214517
    52  C   -0.266747
    53  C   -0.003553
    54  C   -0.148818
    55  C   -0.057712
    56  C    0.030054
    57  C   -0.199177
    58  C   -0.141656
    59  C    0.102509
    60  C   -0.208003
    61  C    0.090924
    62  C    0.093845
    63  C   -0.210729
    64  C   -0.266917
    65  P    1.322768
    66  H    0.395233
    67  H    0.129879
    68  H    0.137298
    69  H    0.131519
    70  H    0.119614
    71  H    0.133431
    72  H    0.163151
    73  H    0.130737
    74  H    0.126720
    75  H    0.145244
    76  H    0.111638
    77  H    0.129174
    78  H    0.167415
    79  H    0.141345
    80  H    0.127917
    81  H    0.140874
    82  H    0.123269
    83  H    0.161634
    84  H    0.113584
    85  H    0.095382
    86  H    0.119608
    87  H    0.097538
    88  H    0.137742
    89  H    0.114892
    90  H    0.126171
    91  H    0.137174
    92  H    0.133819
    93  H    0.119383
    94  H    0.092489
    95  H    0.125792
    96  H    0.105897
    97  H    0.115809
    98  H    0.134938
    99  H    0.137254
   100  H    0.134197
   101  H    0.186593
   102  O   -0.559217
   103  C   -0.003719
   104  H    0.145694
   105  H    0.166286
   106  C    0.514027
   107  C    0.803815
   108  F   -0.274652
   109  F   -0.288313
   110  F   -0.268854
   111  F   -0.261962
   112  F   -0.254481
 Sum of Mulliken charges =  -0.00000
 Mulliken charges with hydrogens summed into heavy atoms:
               1
     1  O   -0.150293
     2  N   -0.194987
     3  O   -0.612888
     4  O   -0.134505
     5  C    0.107060
     6  N    0.401410
     7  C    0.205001
     8  C    0.649373
     9  C    0.016164
    10  C   -0.172696
    11  C    0.631385
    12  C    0.072372
    13  C    0.325396
    14  C    0.034941
    15  C    0.060203
    16  O   -0.386284
    17  O   -0.384360
    26  O   -0.247396
    27  O   -0.622766
    28  C   -0.009414
    29  O   -0.641045
    30  C    0.005297
    31  C   -0.004440
    32  O   -0.681724
    33  C    0.006507
    34  C    0.001705
    35  C    0.005182
    36  C   -0.112740
    37  C    0.136555
    38  C   -0.030148
    39  C   -0.100787
    40  C    0.100612
    41  C    0.133756
    42  C   -0.059383
    43  C    0.217194
    44  C   -0.144767
    45  C    0.104494
    46  C    0.041466
    47  C    0.121628
    48  C    0.028645
    49  C   -0.022745
    50  C    0.000342
    51  C    0.214517
    52  C    0.004246
    53  C   -0.003553
    54  C   -0.029435
    55  C   -0.057712
    56  C    0.030054
    57  C   -0.106688
    58  C   -0.015864
    59  C    0.102509
    60  C   -0.102107
    61  C    0.090924
    62  C    0.093845
    63  C    0.040018
    64  C    0.004535
    65  P    1.322768
   102  O   -0.559217
   103  C    0.308262
   106  C    0.514027
   107  C    0.803815
   108  F   -0.274652
   109  F   -0.288313
   110  F   -0.268854
   111  F   -0.261962
   112  F   -0.254481
 APT charges:
               1
     1  O   -0.830903
     2  N   -0.129111
     3  O   -0.188009
     4  O   -0.181740
     5  C   -1.399405
     6  N   -0.583000
     7  C    0.555802
     8  C    0.031936
     9  C   -0.346125
    10  C   -0.493271
    11  C   -0.029213
    12  C   -0.538763
    13  C    0.331505
    14  C   -0.464223
    15  C   -0.448685
    16  O    0.405788
    17  O   -0.127599
    18  H    1.253177
    19  H    0.175075
    20  H    0.511947
    21  H    0.565086
    22  H    0.746464
    23  H    0.092934
    24  H    0.115644
    25  H    0.705916
    26  O   -0.393138
    27  O   -0.072770
    28  C   -1.575423
    29  O   -0.490345
    30  C   -1.334294
    31  C   -1.415837
    32  O   -0.794406
    33  C   -1.280060
    34  C   -1.099250
    35  C   -0.804922
    36  C   -0.526120
    37  C   -0.219352
    38  C   -0.461457
    39  C   -0.374140
    40  C    0.354827
    41  C   -0.141186
    42  C   -0.498414
    43  C   -0.302335
    44  C   -0.027083
    45  C    0.055219
    46  C   -1.294614
    47  C   -0.510429
    48  C    0.276694
    49  C   -0.442310
    50  C   -0.707278
    51  C   -0.504691
    52  C   -1.715169
    53  C   -0.379200
    54  C   -0.467990
    55  C   -0.287157
    56  C    0.724090
    57  C   -0.531857
    58  C   -0.431744
    59  C   -0.228738
    60  C   -0.500539
    61  C    0.031879
    62  C    0.177566
    63  C   -0.445235
    64  C   -1.710174
    65  P    0.671728
    66  H    0.308451
    67  H    0.609303
    68  H   -0.050459
    69  H    1.122758
    70  H    1.018119
    71  H    0.622816
    72  H   -0.200095
    73  H    0.281770
    74  H    0.307659
    75  H    0.893328
    76  H    0.403685
    77  H    0.810153
    78  H    0.148960
    79  H    0.054163
    80  H    0.434754
    81  H    0.683169
    82  H    0.791136
    83  H   -0.238165
    84  H    0.296287
    85  H    0.368787
    86  H    1.078732
    87  H    0.941820
    88  H    0.235777
    89  H    0.957367
    90  H    0.842092
    91  H    0.921158
    92  H    0.760188
    93  H    1.189751
    94  H    0.414641
    95  H    0.633603
    96  H    0.630885
    97  H    0.855646
    98  H   -0.230560
    99  H    0.470493
   100  H    1.089827
   101  H    0.403492
   102  O   -0.193714
   103  C   -0.623196
   104  H    0.257106
   105  H    0.256067
   106  C   -0.309046
   107  C   -0.319036
   108  F   -0.048569
   109  F   -0.060546
   110  F   -0.034623
   111  F   -0.025703
   112  F    1.184197
 Sum of APT charges =  -0.00000
 APT charges with hydrogens summed into heavy atoms:
               1
     1  O    0.422274
     2  N    0.045963
     3  O   -0.188009
     4  O    0.330207
     5  C    0.005079
     6  N   -0.583000
     7  C    0.555802
     8  C    0.031936
     9  C   -0.346125
    10  C   -0.493271
    11  C   -0.029213
    12  C   -0.423119
    13  C    0.331505
    14  C    0.241693
    15  C   -0.045193
    16  O    0.405788
    17  O   -0.127599
    26  O   -0.084686
    27  O   -0.072770
    28  C    0.106179
    29  O   -0.490345
    30  C    0.106546
    31  C    0.066920
[...]
 Alpha virt. eigenvalues --    1.34009   1.34245   1.34723   1.35403   1.35897
 Alpha virt. eigenvalues --    1.36563   1.36710   1.36892   1.37035   1.37470
 Alpha virt. eigenvalues --    1.37874   1.38036   1.38610   1.38959   1.39106
 Alpha virt. eigenvalues --    1.39448   1.39814   1.40122   1.40382   1.40714
 Alpha virt. eigenvalues --    1.41292   1.41828   1.41894   1.42209   1.42664
 Alpha virt. eigenvalues --    1.42832   1.43183   1.43249   1.43464   1.43780
 Alpha virt. eigenvalues --    1.44096   1.44621   1.44817   1.45029   1.45420
 Alpha virt. eigenvalues --    1.45617   1.45839   1.46284   1.46578   1.46782
 Alpha virt. eigenvalues --    1.46957   1.47624   1.47728   1.47932   1.48993
 Alpha virt. eigenvalues --    1.49341   1.49787   1.49970   1.50397   1.50902
 Alpha virt. eigenvalues --    1.50961   1.51626   1.51887   1.52204   1.53515
 Alpha virt. eigenvalues --    1.54381   1.54567   1.54807   1.55111   1.56219
 Alpha virt. eigenvalues --    1.56833   1.57206   1.57665   1.57859   1.58243
 Alpha virt. eigenvalues --    1.59290   1.59932   1.61847   1.61960   1.62262
 Alpha virt. eigenvalues --    1.62548   1.63329   1.64089   1.64426   1.64618
 Alpha virt. eigenvalues --    1.65285   1.66108   1.67079   1.67329   1.67681
 Alpha virt. eigenvalues --    1.68901   1.69337   1.69818   1.70585   1.71252
 Alpha virt. eigenvalues --    1.71993   1.72174   1.72638   1.72780   1.73481
 Alpha virt. eigenvalues --    1.73694   1.74580   1.74761   1.75430   1.75539
 Alpha virt. eigenvalues --    1.76010   1.76096   1.76921   1.77382   1.77521
 Alpha virt. eigenvalues --    1.78020   1.78223   1.78740   1.78939   1.79113
 Alpha virt. eigenvalues --    1.79655   1.79948   1.80116   1.80446   1.80570
 Alpha virt. eigenvalues --    1.81061   1.81364   1.81661   1.81732   1.81805
 Alpha virt. eigenvalues --    1.82312   1.82635   1.82850   1.83296   1.83607
 Alpha virt. eigenvalues --    1.83676   1.84015   1.84264   1.84450   1.84761
 Alpha virt. eigenvalues --    1.85032   1.85244   1.85580   1.85809   1.86144
 Alpha virt. eigenvalues --    1.86544   1.86723   1.86989   1.87073   1.87522
 Alpha virt. eigenvalues --    1.87792   1.88077   1.88281   1.88505   1.88989
 Alpha virt. eigenvalues --    1.89090   1.89513   1.90111   1.90558   1.90803
 Alpha virt. eigenvalues --    1.90967   1.91115   1.91581   1.91746   1.92130
 Alpha virt. eigenvalues --    1.92376   1.92555   1.93253   1.93672   1.93903
 Alpha virt. eigenvalues --    1.94048   1.94414   1.94505   1.94777   1.95206
 Alpha virt. eigenvalues --    1.95717   1.95908   1.96060   1.96475   1.96641
 Alpha virt. eigenvalues --    1.97082   1.97517   1.97957   1.98378   1.98612
 Alpha virt. eigenvalues --    1.98718   1.99345   1.99899   2.00308   2.00470
 Alpha virt. eigenvalues --    2.00769   2.01044   2.01623   2.02187   2.02483
 Alpha virt. eigenvalues --    2.03005   2.03241   2.03391   2.04044   2.04424
 Alpha virt. eigenvalues --    2.04619   2.04714   2.04979   2.05340   2.05499
 Alpha virt. eigenvalues --    2.05772   2.05958   2.06284   2.06472   2.06954
 Alpha virt. eigenvalues --    2.07079   2.07412   2.07555   2.07795   2.08367
 Alpha virt. eigenvalues --    2.08493   2.08720   2.08979   2.09437   2.09548
 Alpha virt. eigenvalues --    2.09839   2.10130   2.10240   2.10584   2.11096
 Alpha virt. eigenvalues --    2.11275   2.11513   2.11783   2.12213   2.12440
 Alpha virt. eigenvalues --    2.12694   2.12921   2.13136   2.13362   2.13723
 Alpha virt. eigenvalues --    2.14016   2.14170   2.14401   2.14566   2.15149
 Alpha virt. eigenvalues --    2.15500   2.15848   2.16047   2.16142   2.16343
 Alpha virt. eigenvalues --    2.16580   2.16991   2.17220   2.17412   2.17667
 Alpha virt. eigenvalues --    2.18048   2.18177   2.18519   2.19056   2.19377
 Alpha virt. eigenvalues --    2.19562   2.19765   2.20345   2.20559   2.21065
 Alpha virt. eigenvalues --    2.21335   2.21384   2.21894   2.22700   2.23151
 Alpha virt. eigenvalues --    2.23192   2.23743   2.24637   2.25111   2.25178
 Alpha virt. eigenvalues --    2.25207   2.25569   2.25928   2.26369   2.26703
 Alpha virt. eigenvalues --    2.27241   2.27416   2.27818   2.28327   2.28728
 Alpha virt. eigenvalues --    2.29148   2.29208   2.29690   2.29883   2.30534
 Alpha virt. eigenvalues --    2.30921   2.31567   2.31748   2.32045   2.32463
 Alpha virt. eigenvalues --    2.32648   2.33125   2.33234   2.33487   2.34327
 Alpha virt. eigenvalues --    2.35071   2.36059   2.36333   2.36936   2.37258
 Alpha virt. eigenvalues --    2.37360   2.37518   2.37934   2.38670   2.39197
 Alpha virt. eigenvalues --    2.39617   2.40557   2.40637   2.41206   2.41809
 Alpha virt. eigenvalues --    2.41960   2.42094   2.42192   2.42569   2.43032
 Alpha virt. eigenvalues --    2.43459   2.43689   2.43800   2.44022   2.44451
 Alpha virt. eigenvalues --    2.44807   2.45183   2.45665   2.46032   2.46347
 Alpha virt. eigenvalues --    2.46838   2.47181   2.47353   2.47674   2.47940
 Alpha virt. eigenvalues --    2.48384   2.48582   2.48786   2.49252   2.49354
 Alpha virt. eigenvalues --    2.50440   2.50878   2.51300   2.51668   2.51978
 Alpha virt. eigenvalues --    2.52404   2.53117   2.53202   2.53450   2.53875
 Alpha virt. eigenvalues --    2.53951   2.54888   2.55409   2.55809   2.55980
 Alpha virt. eigenvalues --    2.56238   2.56811   2.57135   2.57988   2.58330
 Alpha virt. eigenvalues --    2.58924   2.59595   2.59721   2.60191   2.60524
 Alpha virt. eigenvalues --    2.60926   2.61079   2.61468   2.62224   2.62388
 Alpha virt. eigenvalues --    2.63037   2.63255   2.63864   2.64143   2.64439
 Alpha virt. eigenvalues --    2.64622   2.64906   2.65155   2.65671   2.66220
 Alpha virt. eigenvalues --    2.66597   2.66716   2.66933   2.67081   2.67967
 Alpha virt. eigenvalues --    2.68250   2.68465   2.68861   2.69047   2.69536
 Alpha virt. eigenvalues --    2.69976   2.70347   2.70812   2.71063   2.71478
 Alpha virt. eigenvalues --    2.71720   2.72067   2.72487   2.72796   2.73243
 Alpha virt. eigenvalues --    2.73374   2.73603   2.73749   2.73922   2.74654
 Alpha virt. eigenvalues --    2.74926   2.75646   2.76065   2.76362   2.77053
 Alpha virt. eigenvalues --    2.78582   2.78659   2.78831   2.79779   2.80279
 Alpha virt. eigenvalues --    2.80385   2.80407   2.80945   2.81218   2.81909
 Alpha virt. eigenvalues --    2.82009   2.82307   2.82459   2.82868   2.83737
 Alpha virt. eigenvalues --    2.83808   2.84147   2.84702   2.85612   2.85838
 Alpha virt. eigenvalues --    2.85955   2.86451   2.86985   2.87243   2.87945
 Alpha virt. eigenvalues --    2.88137   2.88555   2.88625   2.89000   2.89199
 Alpha virt. eigenvalues --    2.89297   2.90079   2.90253   2.90325   2.90770
 Alpha virt. eigenvalues --    2.91089   2.91264   2.92247   2.92630   2.92902
 Alpha virt. eigenvalues --    2.93201   2.93369   2.93896   2.94533   2.95324
 Alpha virt. eigenvalues --    2.95948   2.96633   2.97098   2.97339   2.98347
 Alpha virt. eigenvalues --    3.00494   3.01175   3.01210   3.02703   3.03552
 Alpha virt. eigenvalues --    3.04222   3.04838   3.05008   3.06540   3.07962
 Alpha virt. eigenvalues --    3.08041   3.09301   3.09726   3.10097   3.10231
 Alpha virt. eigenvalues --    3.10614   3.11095   3.11738   3.12350   3.14320
 Alpha virt. eigenvalues --    3.15116   3.15863   3.17978   3.18273   3.18513
 Alpha virt. eigenvalues --    3.18794   3.19183   3.19730   3.20174   3.20509
 Alpha virt. eigenvalues --    3.21960   3.22097   3.22691   3.22950   3.23096
 Alpha virt. eigenvalues --    3.24140   3.25254   3.25388   3.26231   3.26783
 Alpha virt. eigenvalues --    3.27323   3.27912   3.28061   3.30273   3.30496
 Alpha virt. eigenvalues --    3.31573   3.31705   3.32630   3.32714   3.32896
 Alpha virt. eigenvalues --    3.34494   3.34775   3.36978   3.38147   3.40537
 Alpha virt. eigenvalues --    3.41205   3.41664   3.42798   3.43216   3.43366
 Alpha virt. eigenvalues --    3.44608   3.44880   3.45196   3.45398   3.45604
 Alpha virt. eigenvalues --    3.45841   3.46104   3.46445   3.46793   3.47243
 Alpha virt. eigenvalues --    3.47835   3.48316   3.48823   3.49131   3.49693
 Alpha virt. eigenvalues --    3.50898   3.51823   3.57872   3.60589   3.66137
 Alpha virt. eigenvalues --    3.69011   3.69361   3.73060   3.74744   3.75246
 Alpha virt. eigenvalues --    3.76573   3.88001   3.96093   4.04378   4.04630
 Alpha virt. eigenvalues --    4.08639   4.10503   4.15799   4.18077   4.18442
 Alpha virt. eigenvalues --    4.18970   4.19792   4.20859   4.22601   4.23319
 Alpha virt. eigenvalues --    4.23801   4.25181   4.25831   4.26556   4.26837
 Alpha virt. eigenvalues --    4.27557   4.32105   4.33036   4.35632   4.35948
 Alpha virt. eigenvalues --    4.36451   4.38431   4.40275   4.40435   4.42095
 Alpha virt. eigenvalues --    4.42675   4.43649   4.44874   4.47827   4.48142
 Alpha virt. eigenvalues --    4.48833   4.50696   4.51440   4.51754   4.52314
 Alpha virt. eigenvalues --    4.53947   4.55829   4.56301   4.59280   4.61663
 Alpha virt. eigenvalues --    4.61782   4.62867   4.63521   4.64173   4.64900
 Alpha virt. eigenvalues --    4.67674   4.72898   4.74095   4.80692   4.85072
 Alpha virt. eigenvalues --    4.87091   4.87452   4.88754   4.90134   4.94734
 Alpha virt. eigenvalues --    4.97662   5.01360   5.23833   5.33799   5.77896
          Condensed to atoms (all electrons):
 Mulliken charges:
               1
     1  O   -0.482085
     2  N   -0.589468
     3  O   -0.556389
     4  O   -0.573148
     5  C   -0.347197
     6  N    0.402668
     7  C    0.206022
     8  C    0.653908
     9  C    0.014318
    10  C   -0.095048
    11  C    0.648942
    12  C   -0.103613
    13  C    0.326859
    14  C   -0.135591
    15  C   -0.126917
    16  O   -0.386366
    17  O   -0.381336
    18  H    0.370183
    19  H    0.406692
    20  H    0.438893
    21  H    0.128849
    22  H    0.161320
    23  H    0.184402
    24  H    0.193847
    25  H    0.171362
    26  O   -0.650959
    27  O   -0.628336
    28  C   -0.407175
    29  O   -0.656265
    30  C   -0.411427
    31  C   -0.405490
    32  O   -0.718605
    33  C   -0.398096
    34  C   -0.408103
    35  C   -0.393505
    36  C   -0.212823
    37  C    0.134227
    38  C   -0.151909
    39  C   -0.199556
    40  C    0.098573
    41  C    0.128164
    42  C   -0.050793
    43  C    0.233414
    44  C   -0.142511
    45  C    0.105558
    46  C   -0.211242
    47  C    0.121923
    48  C    0.027571
    49  C   -0.150452
    50  C    0.010194
    51  C    0.221575
    52  C   -0.266610
    53  C   -0.014417
    54  C   -0.151695
    55  C   -0.052235
    56  C    0.033965
    57  C   -0.199773
    58  C   -0.142819
    59  C    0.098865
    60  C   -0.218650
    61  C    0.101474
    62  C    0.091081
    63  C   -0.210370
    64  C   -0.266616
    65  P    1.294459
    66  H    0.288551
    67  H    0.130709
    68  H    0.129029
    69  H    0.131560
    70  H    0.116054
    71  H    0.133286
    72  H    0.168689
    73  H    0.122374
    74  H    0.127768
    75  H    0.146517
    76  H    0.092763
    77  H    0.125629
    78  H    0.185936
    79  H    0.143914
    80  H    0.124202
    81  H    0.142302
    82  H    0.124024
    83  H    0.162847
    84  H    0.109766
    85  H    0.092517
    86  H    0.115376
    87  H    0.094939
    88  H    0.138075
    89  H    0.111864
    90  H    0.122155
    91  H    0.134422
    92  H    0.130968
    93  H    0.114873
    94  H    0.090504
    95  H    0.120133
    96  H    0.095676
    97  H    0.113249
    98  H    0.133161
    99  H    0.134130
   100  H    0.131977
   101  H    0.189313
   102  O   -0.559423
   103  C   -0.003648
   104  H    0.144776
   105  H    0.167157
   106  C    0.513975
   107  C    0.803528
   108  F   -0.274041
   109  F   -0.288281
   110  F   -0.269066
   111  F   -0.261663
   112  F   -0.254279
 Sum of Mulliken charges =  -0.00000
 Mulliken charges with hydrogens summed into heavy atoms:
               1
     1  O   -0.111902
     2  N   -0.182776
     3  O   -0.556389
     4  O   -0.134255
     5  C    0.127374
     6  N    0.402668
     7  C    0.206022
     8  C    0.653908
     9  C    0.014318
    10  C    0.193502
    11  C    0.648942
    12  C    0.090234
    13  C    0.326859
    14  C    0.035771
    15  C    0.062395
    16  O   -0.386366
    17  O   -0.381336
    26  O   -0.650959
    27  O   -0.628336
    28  C   -0.015877
    29  O   -0.656265
    30  C    0.006602
    31  C   -0.008831
    32  O   -0.718605
    33  C    0.006233
    34  C    0.002315
    35  C    0.003132
    36  C   -0.120306
    37  C    0.134227
    38  C   -0.036534
    39  C   -0.104617
    40  C    0.098573
    41  C    0.128164
    42  C   -0.050793
    43  C    0.233414
    44  C   -0.142511
    45  C    0.105558
    46  C    0.038698
    47  C    0.121923
    48  C    0.027571
    49  C   -0.028297
    50  C    0.010194
    51  C    0.221575
    52  C   -0.001221
    53  C   -0.014417
    54  C   -0.036822
    55  C   -0.052235
    56  C    0.033965
    57  C   -0.109269
    58  C   -0.022686
    59  C    0.098865
    60  C   -0.122973
    61  C    0.101474
    62  C    0.091081
    63  C    0.036040
    64  C   -0.000509
    65  P    1.294459
   102  O   -0.559423
   103  C    0.308285
   106  C    0.513975
   107  C    0.803528
   108  F   -0.274041
   109  F   -0.288281
   110  F   -0.269066
   111  F   -0.261663
   112  F   -0.254279
 APT charges:
               1
     1  O   -0.867704
     2  N   -0.140095
     3  O   -0.100772
     4  O   -0.282667
     5  C   -1.394488
     6  N   -0.582557
     7  C    0.557876
     8  C   -0.119331
     9  C   -0.357923
    10  C   -0.369431
    11  C   -0.008094
    12  C   -0.534875
    13  C    0.338076
    14  C   -0.473172
    15  C   -0.449815
    16  O    0.402643
    17  O   -0.119092
    18  H    1.357116
    19  H    0.231476
    20  H    0.647844
    21  H    0.522626
    22  H    0.801431
    23  H    0.079539
    24  H    0.125961
    25  H    0.701618
    26  O   -0.399363
    27  O   -0.123386
    28  C   -1.588553
    29  O   -0.510324
    30  C   -1.316861
    31  C   -1.421472
    32  O   -0.829286
    33  C   -1.263278
    34  C   -1.099742
    35  C   -0.790803
    36  C   -0.510198
    37  C   -0.238877
    38  C   -0.473912
    39  C   -0.379736
    40  C    0.364271
    41  C   -0.136518
    42  C   -0.509488
    43  C   -0.282277
    44  C   -0.023092
    45  C    0.070514
    46  C   -1.270581
    47  C   -0.520551
    48  C    0.296811
    49  C   -0.430919
    50  C   -0.697037
    51  C   -0.491533
    52  C   -1.708753
    53  C   -0.390604
    54  C   -0.465983
    55  C   -0.296394
    56  C    0.725461
    57  C   -0.528181
    58  C   -0.429265
    59  C   -0.233946
    60  C   -0.516936
    61  C    0.039763
    62  C    0.180874
    63  C   -0.458662
    64  C   -1.709497
    65  P    0.605973
    66  H    0.259749
    67  H    0.628146
    68  H   -0.052321
    69  H    1.109637
    70  H    1.007728
    71  H    0.624207
    72  H   -0.206452
    73  H    0.283266
    74  H    0.305738
    75  H    0.893036
    76  H    0.401086
    77  H    0.798410
    78  H    0.148423
    79  H    0.056279
    80  H    0.430252
    81  H    0.685743
    82  H    0.760600
    83  H   -0.250744
    84  H    0.327636
    85  H    0.361710
    86  H    1.080784
    87  H    0.937269
    88  H    0.218645
    89  H    0.954414
    90  H    0.841090
    91  H    0.904508
    92  H    0.765859
    93  H    1.176733
    94  H    0.413941
    95  H    0.622390
    96  H    0.623099
    97  H    0.855051
    98  H   -0.226072
    99  H    0.476122
   100  H    1.082315
   101  H    0.413360
   102  O   -0.200306
   103  C   -0.626949
   104  H    0.261754
   105  H    0.260079
   106  C   -0.309969
   107  C   -0.319852
   108  F   -0.047557
   109  F   -0.061022
   110  F   -0.031341
   111  F   -0.021646
   112  F    1.181319
 Sum of APT charges =  -0.00000
 APT charges with hydrogens summed into heavy atoms:
               1
     1  O    0.489412
     2  N    0.091381
     3  O   -0.100772
     4  O    0.365177
     5  C    0.009109
     6  N   -0.582557
     7  C    0.557876
     8  C   -0.119331
     9  C   -0.357923
    10  C   -0.109681
    11  C   -0.008094
    12  C   -0.408914
    13  C    0.338076
    14  C    0.228446
    15  C   -0.036454
    16  O    0.402643
    17  O   -0.119092
    26  O   -0.399363
    27  O   -0.123386
    28  C    0.096909
    29  O   -0.510324
    30  C    0.108622
    31  C    0.060568
    32  O   -0.829286
    33  C    0.084642
    34  C    0.072533
    35  C    0.046690
    36  C   -0.148488
    37  C   -0.238877
    38  C    0.606873
    39  C    0.557533
    40  C    0.364271
    41  C   -0.136518
    42  C   -0.509488
    43  C   -0.282277
    44  C   -0.023092
    45  C    0.070514
    46  C   -0.097523
    47  C   -0.520551
    48  C    0.296811
    49  C    0.410171
    50  C   -0.697037
    51  C   -0.491533
    52  C   -0.038387
    53  C   -0.390604
    54  C    0.710751
    55  C   -0.296394
    56  C    0.725461
    57  C   -0.114240
    58  C    0.193125
    59  C   -0.233946
    60  C    0.106163
    61  C    0.039763
    62  C    0.180874
    63  C    0.170317
    64  C   -0.151060
    65  P    0.605973
   102  O   -0.200306
   103  C   -0.105117
   106  C   -0.309969
   107  C   -0.319852
   108  F   -0.047557
   109  F   -0.061022
   110  F   -0.031341
   111  F   -0.021646
   112  F    1.181319
 Electronic spatial extent (au):  <R**2>=          53981.2026
 Charge=              0.0000 electrons
 Dipole moment (field-independent basis, Debye):
    X=              1.8259    Y=              4.9775    Z=              4.0705  Tot=              6.6842
 Quadrupole moment (field-independent basis, Debye-Ang):
   XX=           -409.5440   YY=           -367.5728   ZZ=           -360.6917
   XY=            -26.9455   XZ=             -7.9260   YZ=             14.3327
 Traceless Quadrupole moment (field-independent basis, Debye-Ang):
   XX=            -30.2745   YY=             11.6967   ZZ=             18.5778
   XY=            -26.9455   XZ=             -7.9260   YZ=             14.3327
 Octapole moment (field-independent basis, Debye-Ang**2):
  XXX=           -194.3426  YYY=             81.8228  ZZZ=            107.3744  XYY=            -83.5720
  XXY=              8.2538  XXZ=             30.0220  XZZ=            -67.4249  YZZ=             92.1442
  YYZ=             70.9829  XYZ=             68.9043
 Hexadecapole moment (field-independent basis, Debye-Ang**3):
 XXXX=         -44848.2687 YYYY=         -14305.5869 ZZZZ=          -9533.7359 XXXY=           -855.7119
 XXXZ=            190.5507 YYYX=           -244.0086 YYYZ=            231.6061 ZZZX=            398.2398
 ZZZY=            472.4386 XXYY=          -9415.7712 XXZZ=          -8954.8493 YYZZ=          -3949.9224
 XXYZ=             32.1100 YYXZ=            266.2907 ZZXY=           -112.5917
 N-N= 1.155612442118D+04 E-N=-3.143780234319D+04  KE= 3.530890007266D+03
  Exact polarizability:       0.000       0.000       0.000       0.000       0.000       0.000
 Approx polarizability:     729.820     -44.089     650.545      -5.081      66.344     699.705
 Leave Link  601 at Sun Nov 13 07:30:31 2022, MaxMem=  8053063680 cpu:              11.3 elap:               1.0
 (Enter /project/chenjingdan/g16/l9999.exe)

 This type of calculation cannot be archived.


 IT IS WELL TO REMEMBER THAT MAN IS A PART OF NATURE AND THAT HIS WORKS,
 WHATEVER THEY MAY BE, ARE NO MORE "UNNATURAL" THAN 
 THE FLIGHT OF AN EAGLE OR THE PASSAGE OF A TORNADO.

                                    -- CHARLES MCCARRY IN "THE GREAT SOUTHWEST"
 Job cpu time:       4 days  3 hours 37 minutes 27.4 seconds.
 Elapsed time:       0 days  6 hours 18 minutes 54.3 seconds.
 File lengths (MBytes):  RWF=    986 Int=      0 D2E=      0 Chk=    123 Scr=      1
 Normal termination of Gaussian 16 at Sun Nov 13 07:30:31 2022.
