 Entering Gaussian System, Link 0=g16
 Initial command:
 /project/chenjingdan/g16/l1.exe "/scratch/chenjingdan/scratch/Gau-24167.inp" -scrdir="/scratch/chenjingdan/scratch/"
 Entering Link 1 = /project/chenjingdan/g16/l1.exe PID=     24168.
  
 Copyright (c) 1988-2019, Gaussian, Inc.  All Rights Reserved.
  
 This is part of the Gaussian(R) 16 program.  It is based on
 the Gaussian(R) 09 system (copyright 2009, Gaussian, Inc.),
 the Gaussian(R) 03 system (copyright 2003, Gaussian, Inc.),
 the Gaussian(R) 98 system (copyright 1998, Gaussian, Inc.),
 the Gaussian(R) 94 system (copyright 1995, Gaussian, Inc.),
 the Gaussian 92(TM) system (copyright 1992, Gaussian, Inc.),
 the Gaussian 90(TM) system (copyright 1990, Gaussian, Inc.),
 the Gaussian 88(TM) system (copyright 1988, Gaussian, Inc.),
 the Gaussian 86(TM) system (copyright 1986, Carnegie Mellon
 University), and the Gaussian 82(TM) system (copyright 1983,
 Carnegie Mellon University). Gaussian is a federally registered
 trademark of Gaussian, Inc.
  
 This software contains proprietary and confidential information,
 including trade secrets, belonging to Gaussian, Inc.
  
 This software is provided under written license and may be
 used, copied, transmitted, or stored only in accord with that
 written license.
  
 The following legend is applicable only to US Government
 contracts under FAR:
  
                    RESTRICTED RIGHTS LEGEND
  
 Use, reproduction and disclosure by the US Government is
 subject to restrictions as set forth in subparagraphs (a)
 and (c) of the Commercial Computer Software - Restricted
 Rights clause in FAR 52.227-19.
  
 Gaussian, Inc.
 340 Quinnipiac St., Bldg. 40, Wallingford CT 06492
  
  
 ---------------------------------------------------------------
 Warning -- This program may not be used in any manner that
 competes with the business of Gaussian, Inc. or will provide
 assistance to any competitor of Gaussian, Inc.  The licensee
 of this program is prohibited from giving any competitor of
 Gaussian, Inc. access to this program.  By using this program,
 the user acknowledges that Gaussian, Inc. is engaged in the
 business of creating and licensing software in the field of
 computational chemistry and represents and warrants to the
 licensee that it is not a competitor of Gaussian, Inc. and that
 it will not use this program in any manner prohibited above.
 ---------------------------------------------------------------
  

 Cite this work as:
 Gaussian 16, Revision C.01,
 M. J. Frisch, G. W. Trucks, H. B. Schlegel, G. E. Scuseria, 
 M. A. Robb, J. R. Cheeseman, G. Scalmani, V. Barone, 
 G. A. Petersson, H. Nakatsuji, X. Li, M. Caricato, A. V. Marenich, 
 J. Bloino, B. G. Janesko, R. Gomperts, B. Mennucci, H. P. Hratchian, 
 J. V. Ortiz, A. F. Izmaylov, J. L. Sonnenberg, D. Williams-Young, 
 F. Ding, F. Lipparini, F. Egidi, J. Goings, B. Peng, A. Petrone, 
 T. Henderson, D. Ranasinghe, V. G. Zakrzewski, J. Gao, N. Rega, 
 G. Zheng, W. Liang, M. Hada, M. Ehara, K. Toyota, R. Fukuda, 
 J. Hasegawa, M. Ishida, T. Nakajima, Y. Honda, O. Kitao, H. Nakai, 
 T. Vreven, K. Throssell, J. A. Montgomery, Jr., J. E. Peralta, 
 F. Ogliaro, M. J. Bearpark, J. J. Heyd, E. N. Brothers, K. N. Kudin, 
 V. N. Staroverov, T. A. Keith, R. Kobayashi, J. Normand, 
 K. Raghavachari, A. P. Rendell, J. C. Burant, S. S. Iyengar, 
 J. Tomasi, M. Cossi, J. M. Millam, M. Klene, C. Adamo, R. Cammi, 
 J. W. Ochterski, R. L. Martin, K. Morokuma, O. Farkas, 
 J. B. Foresman, and D. J. Fox, Gaussian, Inc., Wallingford CT, 2019.
 
 ******************************************
 Gaussian 16:  ES64L-G16RevC.01  3-Jul-2019
                11-Nov-2022 
 ******************************************
 %nprocshared=16
 Will use up to   16 processors via shared memory.
 %mem=60GB
 %chk=N2_ts2_invR_t1_try2_opts_irc_lqa2.chk
 ------------------------------------------------------------
 #p irc=(calcfc,maxpoints=30,lqa,stepsize=5) 6-31g(d,p) m062x
 ------------------------------------------------------------
 1/10=4,18=10,26=3,38=1,39=5,42=30,44=3,45=2,172=1/1,23;
 2/12=2,17=6,18=5,29=1,40=1/2;
 3/5=1,6=6,7=101,11=2,25=1,30=1,71=2,74=-55,140=1/1,2,3;
 4//1;
 5/5=2,38=5/2;
 8/6=4,10=90,11=11/1;
 11/6=1,8=1,9=11,15=111,16=1/1,2,10;
 10/6=1,13=1/2;
 6/7=2,8=2,9=2,10=2,28=1/1;
 7/10=1,25=1/1,2,3,16;
 1/10=4,18=10,26=3,39=5,42=30,44=3,45=2/23(2);
 2/29=1/2;
 99/5=20/99;
 2/29=1/2;
 3/5=1,6=6,7=101,11=2,25=1,30=1,71=2,74=-55,140=1/1,2,3;
 4/5=5,16=3,69=1/1;
 5/5=2,38=5/2;
 8/6=4,10=90,11=11/1;
 11/6=1,8=1,9=11,15=111,16=1/1,2,10;
 10/6=1,13=1/2;
 7/10=1,25=1/1,2,3,16;
 1/18=10,26=3,39=5,42=30,44=3,45=2/23(-8);
 2/29=1/2;
 6/7=2,8=2,9=2,10=2,19=2,28=1/1;
 99/5=20,9=1/99;
 Leave Link    1 at Fri Nov 11 22:34:46 2022, MaxMem=  8053063680 cpu:               1.4 elap:               0.1
 (Enter /project/chenjingdan/g16/l101.exe)
 -----
 TITLE
 -----
 Symbolic Z-matrix:
 Charge =  0 Multiplicity = 1
 O                     0.33814   5.31377  -1.99568 
 N                    -1.51321   2.69431  -0.27517 
 O                    -1.6756    4.48243  -2.46029 
 O                    -3.37583   3.88112  -0.8383 
 C                     0.22117   4.19392   0.64618 
 N                    -6.18395  -1.19043   1.9048 
 C                    -5.27897  -0.16681   1.36781 
 C                    -0.66299   4.47472  -1.71668 
 C                    -3.68268   1.82585   0.32127 
 C                    -0.43837   3.61727  -0.60134 
 C                    -2.81064   2.85696  -0.29814 
 C                    -3.11016   0.79383   1.06192 
 C                    -5.85531   0.88214   0.66314 
 C                    -5.06191   1.88816   0.1282 
 C                    -3.88843  -0.24877   1.56155 
 O                    -7.22569  -1.37294   1.29851 
 O                    -5.85109  -1.75966   2.92288 
 H                     0.06452   5.82086  -2.77428 
 H                    -1.16551   1.75052  -0.04014 
 H                    -2.71573   4.23292  -1.61594 
 H                     0.59486   3.38923   1.28666 
 H                     1.08372   4.79573   0.35439 
 H                    -0.46954   4.81563   1.22785 
 H                    -2.04339   0.76715   1.22912 
 H                    -5.4934    2.7058   -0.43613 
 O                     1.55056   1.94853  -0.7762 
 O                     1.48706  -0.21911  -1.91981 
 C                    -4.0208    2.25958  -3.57654 
 O                     2.14425  -0.20797   0.52811 
 C                     0.47497   0.2796   -4.55054 
 C                     2.06148   4.87739   4.43251 
 O                    -0.25106   0.24741  -0.01131 
 C                     4.17332   3.69283   0.02987 
 C                     3.14624   0.06057   3.43878 
 C                    -2.72072  -2.00496  -1.27034 
 C                    -3.27557   0.11366  -2.46509 
 C                     2.08114  -2.51438  -1.64816 
 C                     0.49415  -4.25277  -2.19768 
 C                    -1.76123   1.2058   -3.9532 
 C                    -2.998     1.18426  -3.31413 
 C                     4.09051  -1.12242  -0.54316 
 C                    -1.10377  -0.86463  -2.89016 
 C                     1.1649   -1.56198  -2.06097 
 C                     3.51783  -2.38007  -1.17956 
 C                    -0.81598   0.19461  -3.77266 
 C                     4.49928  -2.55733  -2.37481 
 C                    -2.35244  -0.90518  -2.23577 
 C                     1.70814  -3.86088  -1.65051 
 C                    -0.37748  -3.2795   -2.68217 
 C                     4.26771   0.86948   0.8492 
 C                     3.51166  -0.15892   0.27283 
 C                     5.85821  -2.08462  -1.8342 
 C                    -0.09002  -1.91343  -2.57731 
 C                     6.23159  -0.00969  -0.29317 
 C                     3.65856   1.88991   1.75161 
 C                     5.45166  -1.01365  -0.84977 
 C                     2.62928   2.48285   3.8533 
 C                     5.63674   0.91077   0.56457 
 C                     3.13909   1.50316   2.99865 
 C                     3.16436   4.19321   2.27188 
 C                     3.66469   3.24726   1.37924 
 C                     2.63496   3.83212   3.51034 
 C                     3.60803  -3.61497  -0.23968 
 C                     2.7531   -4.69151  -0.93989 
 P                     1.13343   0.48936  -0.51606 
 H                     0.69083   2.70204  -0.8909 
 H                    -3.53949   3.22787  -3.73569 
 H                    -4.60629   2.02521  -4.4718 
 H                    -4.72047   2.35307  -2.74148 
 H                     0.28132   0.66241  -5.55581 
 H                     0.95855  -0.69525  -4.64213 
 H                     1.18279   0.95238  -4.05835 
 H                     1.90899   4.47947   5.4382 
 H                     2.7218    5.74589   4.505 
 H                     1.09347   5.23372   4.06391 
 H                     3.84007   4.71195  -0.18246 
 H                     5.26676   3.68521  -0.01831 
 H                     3.79851   3.03556  -0.7581 
 H                     2.39435  -0.52103   2.89782 
 H                     2.93396  -0.01574   4.50738 
 H                     4.11753  -0.40496   3.24783 
 H                    -3.12806  -2.8809   -1.78622 
 H                    -1.85659  -2.34891  -0.70048 
 H                    -3.49353  -1.6631   -0.57732 
 H                    -4.23742   0.07159  -1.95607 
 H                     0.21046  -5.30052  -2.22483 
 H                    -1.52673   2.02954  -4.62467 
 H                     4.17606  -1.8975   -3.18687 
 H                     4.50705  -3.58304  -2.75343 
 H                    -1.33112  -3.57481  -3.10792 
 H                     6.51952  -1.70334  -2.6168 
 H                     6.39124  -2.89855  -1.32742 
 H                     7.28916   0.06281  -0.52846 
 H                     2.2317    2.18087   4.81988 
 H                     6.23272   1.69516   1.02165 
 H                     3.17167   5.24306   1.98342 
 H                     4.64083  -3.92451  -0.0564 
 H                     3.1533   -3.3506    0.72154 
 H                     2.29962  -5.39135  -0.23212 
 H                     3.34832  -5.28273  -1.64589 
 H                    -6.93053   0.87448   0.53176 
 O                    -3.35368  -1.33331   2.15253 
 C                    -1.94495  -1.46994   2.07971 
 H                    -1.54563  -1.14057   1.11521 
 H                    -1.45236  -0.90779   2.88114 
 C                    -1.6265   -2.94027   2.24277 
 C                    -0.14069  -3.21851   1.97419 
 F                    -1.90656  -3.37732   3.48682 
 F                    -2.33575  -3.67948   1.36461 
 F                     0.17887  -2.85344   0.73078 
 F                     0.61258  -2.51784   2.82705 
 F                     0.13282  -4.51      2.12305 
 
 ITRead=  0  0  0  0  0  0  0  0  0  0  0  0  0  0  0  0  0  0  0  0
 ITRead=  0  0  0  0  0  0  0  0  0  0  0  0  0  0  0  0  0  0  0  0
 ITRead=  0  0  0  0  0  0  0  0  0  0  0  0  0  0  0  0  0  0  0  0
 ITRead=  0  0  0  0  0  0  0  0  0  0  0  0  0  0  0  0  0  0  0  0
 ITRead=  0  0  0  0  0  0  0  0  0  0  0  0  0  0  0  0  0  0  0  0
 ITRead=  0  0  0  0  0  0  0  0  0  0  0  0
 MicOpt= -1 -1 -1 -1 -1 -1 -1 -1 -1 -1 -1 -1 -1 -1 -1 -1 -1 -1 -1 -1
 MicOpt= -1 -1 -1 -1 -1 -1 -1 -1 -1 -1 -1 -1 -1 -1 -1 -1 -1 -1 -1 -1
 MicOpt= -1 -1 -1 -1 -1 -1 -1 -1 -1 -1 -1 -1 -1 -1 -1 -1 -1 -1 -1 -1
 MicOpt= -1 -1 -1 -1 -1 -1 -1 -1 -1 -1 -1 -1 -1 -1 -1 -1 -1 -1 -1 -1
 MicOpt= -1 -1 -1 -1 -1 -1 -1 -1 -1 -1 -1 -1 -1 -1 -1 -1 -1 -1 -1 -1
 MicOpt= -1 -1 -1 -1 -1 -1 -1 -1 -1 -1 -1 -1
 NAtoms=    112 NQM=      112 NQMF=       0 NMMI=      0 NMMIF=      0
                NMic=       0 NMicF=      0.
                    Isotopes and Nuclear Properties:
 (Nuclear quadrupole moments (NQMom) in fm**2, nuclear magnetic moments (NMagM)
  in nuclear magnetons)

  Atom         1           2           3           4           5           6           7           8           9          10
 IAtWgt=          16          14          16          16          12          14          12          12          12          12
 AtmWgt=  15.9949146  14.0030740  15.9949146  15.9949146  12.0000000  14.0030740  12.0000000  12.0000000  12.0000000  12.0000000
 NucSpn=           0           2           0           0           0           2           0           0           0           0
 AtZEff=  -0.0000000  -0.0000000  -0.0000000  -0.0000000  -0.0000000  -0.0000000  -0.0000000  -0.0000000  -0.0000000  -0.0000000
 NQMom=    0.0000000   2.0440000   0.0000000   0.0000000   0.0000000   2.0440000   0.0000000   0.0000000   0.0000000   0.0000000
 NMagM=    0.0000000   0.4037610   0.0000000   0.0000000   0.0000000   0.4037610   0.0000000   0.0000000   0.0000000   0.0000000
 AtZNuc=   8.0000000   7.0000000   8.0000000   8.0000000   6.0000000   7.0000000   6.0000000   6.0000000   6.0000000   6.0000000

  Atom        11          12          13          14          15          16          17          18          19          20
 IAtWgt=          12          12          12          12          12          16          16           1           1           1
 AtmWgt=  12.0000000  12.0000000  12.0000000  12.0000000  12.0000000  15.9949146  15.9949146   1.0078250   1.0078250   1.0078250
 NucSpn=           0           0           0           0           0           0           0           1           1           1
 AtZEff=  -0.0000000  -0.0000000  -0.0000000  -0.0000000  -0.0000000  -0.0000000  -0.0000000  -0.0000000  -0.0000000  -0.0000000
 NQMom=    0.0000000   0.0000000   0.0000000   0.0000000   0.0000000   0.0000000   0.0000000   0.0000000   0.0000000   0.0000000
 NMagM=    0.0000000   0.0000000   0.0000000   0.0000000   0.0000000   0.0000000   0.0000000   2.7928460   2.7928460   2.7928460
 AtZNuc=   6.0000000   6.0000000   6.0000000   6.0000000   6.0000000   8.0000000   8.0000000   1.0000000   1.0000000   1.0000000

  Atom        21          22          23          24          25          26          27          28          29          30
 IAtWgt=           1           1           1           1           1          16          16          12          16          12
 AtmWgt=   1.0078250   1.0078250   1.0078250   1.0078250   1.0078250  15.9949146  15.9949146  12.0000000  15.9949146  12.0000000
 NucSpn=           1           1           1           1           1           0           0           0           0           0
 AtZEff=  -0.0000000  -0.0000000  -0.0000000  -0.0000000  -0.0000000  -0.0000000  -0.0000000  -0.0000000  -0.0000000  -0.0000000
 NQMom=    0.0000000   0.0000000   0.0000000   0.0000000   0.0000000   0.0000000   0.0000000   0.0000000   0.0000000   0.0000000
 NMagM=    2.7928460   2.7928460   2.7928460   2.7928460   2.7928460   0.0000000   0.0000000   0.0000000   0.0000000   0.0000000
 AtZNuc=   1.0000000   1.0000000   1.0000000   1.0000000   1.0000000   8.0000000   8.0000000   6.0000000   8.0000000   6.0000000

  Atom        31          32          33          34          35          36          37          38          39          40
 IAtWgt=          12          16          12          12          12          12          12          12          12          12
 AtmWgt=  12.0000000  15.9949146  12.0000000  12.0000000  12.0000000  12.0000000  12.0000000  12.0000000  12.0000000  12.0000000
 NucSpn=           0           0           0           0           0           0           0           0           0           0
 AtZEff=  -0.0000000  -0.0000000  -0.0000000  -0.0000000  -0.0000000  -0.0000000  -0.0000000  -0.0000000  -0.0000000  -0.0000000
 NQMom=    0.0000000   0.0000000   0.0000000   0.0000000   0.0000000   0.0000000   0.0000000   0.0000000   0.0000000   0.0000000
 NMagM=    0.0000000   0.0000000   0.0000000   0.0000000   0.0000000   0.0000000   0.0000000   0.0000000   0.0000000   0.0000000
 AtZNuc=   6.0000000   8.0000000   6.0000000   6.0000000   6.0000000   6.0000000   6.0000000   6.0000000   6.0000000   6.0000000

  Atom        41          42          43          44          45          46          47          48          49          50
 IAtWgt=          12          12          12          12          12          12          12          12          12          12
 AtmWgt=  12.0000000  12.0000000  12.0000000  12.0000000  12.0000000  12.0000000  12.0000000  12.0000000  12.0000000  12.0000000
 NucSpn=           0           0           0           0           0           0           0           0           0           0
 AtZEff=  -0.0000000  -0.0000000  -0.0000000  -0.0000000  -0.0000000  -0.0000000  -0.0000000  -0.0000000  -0.0000000  -0.0000000
 NQMom=    0.0000000   0.0000000   0.0000000   0.0000000   0.0000000   0.0000000   0.0000000   0.0000000   0.0000000   0.0000000
 NMagM=    0.0000000   0.0000000   0.0000000   0.0000000   0.0000000   0.0000000   0.0000000   0.0000000   0.0000000   0.0000000
 AtZNuc=   6.0000000   6.0000000   6.0000000   6.0000000   6.0000000   6.0000000   6.0000000   6.0000000   6.0000000   6.0000000

  Atom        51          52          53          54          55          56          57          58          59          60
 IAtWgt=          12          12          12          12          12          12          12          12          12          12
 AtmWgt=  12.0000000  12.0000000  12.0000000  12.0000000  12.0000000  12.0000000  12.0000000  12.0000000  12.0000000  12.0000000
 NucSpn=           0           0           0           0           0           0           0           0           0           0
 AtZEff=  -0.0000000  -0.0000000  -0.0000000  -0.0000000  -0.0000000  -0.0000000  -0.0000000  -0.0000000  -0.0000000  -0.0000000
 NQMom=    0.0000000   0.0000000   0.0000000   0.0000000   0.0000000   0.0000000   0.0000000   0.0000000   0.0000000   0.0000000
 NMagM=    0.0000000   0.0000000   0.0000000   0.0000000   0.0000000   0.0000000   0.0000000   0.0000000   0.0000000   0.0000000
 AtZNuc=   6.0000000   6.0000000   6.0000000   6.0000000   6.0000000   6.0000000   6.0000000   6.0000000   6.0000000   6.0000000

  Atom        61          62          63          64          65          66          67          68          69          70
 IAtWgt=          12          12          12          12          31           1           1           1           1           1
 AtmWgt=  12.0000000  12.0000000  12.0000000  12.0000000  30.9737634   1.0078250   1.0078250   1.0078250   1.0078250   1.0078250
 NucSpn=           0           0           0           0           1           1           1           1           1           1
 AtZEff=  -0.0000000  -0.0000000  -0.0000000  -0.0000000  -0.0000000  -0.0000000  -0.0000000  -0.0000000  -0.0000000  -0.0000000
 NQMom=    0.0000000   0.0000000   0.0000000   0.0000000   0.0000000   0.0000000   0.0000000   0.0000000   0.0000000   0.0000000
 NMagM=    0.0000000   0.0000000   0.0000000   0.0000000   1.1316000   2.7928460   2.7928460   2.7928460   2.7928460   2.7928460
 AtZNuc=   6.0000000   6.0000000   6.0000000   6.0000000  15.0000000   1.0000000   1.0000000   1.0000000   1.0000000   1.0000000

  Atom        71          72          73          74          75          76          77          78          79          80
 IAtWgt=           1           1           1           1           1           1           1           1           1           1
 AtmWgt=   1.0078250   1.0078250   1.0078250   1.0078250   1.0078250   1.0078250   1.0078250   1.0078250   1.0078250   1.0078250
 NucSpn=           1           1           1           1           1           1           1           1           1           1
 AtZEff=  -0.0000000  -0.0000000  -0.0000000  -0.0000000  -0.0000000  -0.0000000  -0.0000000  -0.0000000  -0.0000000  -0.0000000
 NQMom=    0.0000000   0.0000000   0.0000000   0.0000000   0.0000000   0.0000000   0.0000000   0.0000000   0.0000000   0.0000000
 NMagM=    2.7928460   2.7928460   2.7928460   2.7928460   2.7928460   2.7928460   2.7928460   2.7928460   2.7928460   2.7928460
 AtZNuc=   1.0000000   1.0000000   1.0000000   1.0000000   1.0000000   1.0000000   1.0000000   1.0000000   1.0000000   1.0000000

  Atom        81          82          83          84          85          86          87          88          89          90
 IAtWgt=           1           1           1           1           1           1           1           1           1           1
 AtmWgt=   1.0078250   1.0078250   1.0078250   1.0078250   1.0078250   1.0078250   1.0078250   1.0078250   1.0078250   1.0078250
 NucSpn=           1           1           1           1           1           1           1           1           1           1
 AtZEff=  -0.0000000  -0.0000000  -0.0000000  -0.0000000  -0.0000000  -0.0000000  -0.0000000  -0.0000000  -0.0000000  -0.0000000
 NQMom=    0.0000000   0.0000000   0.0000000   0.0000000   0.0000000   0.0000000   0.0000000   0.0000000   0.0000000   0.0000000
 NMagM=    2.7928460   2.7928460   2.7928460   2.7928460   2.7928460   2.7928460   2.7928460   2.7928460   2.7928460   2.7928460
 AtZNuc=   1.0000000   1.0000000   1.0000000   1.0000000   1.0000000   1.0000000   1.0000000   1.0000000   1.0000000   1.0000000

  Atom        91          92          93          94          95          96          97          98          99         100
 IAtWgt=           1           1           1           1           1           1           1           1           1           1
 AtmWgt=   1.0078250   1.0078250   1.0078250   1.0078250   1.0078250   1.0078250   1.0078250   1.0078250   1.0078250   1.0078250
 NucSpn=           1           1           1           1           1           1           1           1           1           1
 AtZEff=  -0.0000000  -0.0000000  -0.0000000  -0.0000000  -0.0000000  -0.0000000  -0.0000000  -0.0000000  -0.0000000  -0.0000000
 NQMom=    0.0000000   0.0000000   0.0000000   0.0000000   0.0000000   0.0000000   0.0000000   0.0000000   0.0000000   0.0000000
 NMagM=    2.7928460   2.7928460   2.7928460   2.7928460   2.7928460   2.7928460   2.7928460   2.7928460   2.7928460   2.7928460
 AtZNuc=   1.0000000   1.0000000   1.0000000   1.0000000   1.0000000   1.0000000   1.0000000   1.0000000   1.0000000   1.0000000

  Atom       101         102         103         104         105         106         107         108         109         110
 IAtWgt=           1          16          12           1           1          12          12          19          19          19
 AtmWgt=   1.0078250  15.9949146  12.0000000   1.0078250   1.0078250  12.0000000  12.0000000  18.9984032  18.9984032  18.9984032
 NucSpn=           1           0           0           1           1           0           0           1           1           1
 AtZEff=  -0.0000000  -0.0000000  -0.0000000  -0.0000000  -0.0000000  -0.0000000  -0.0000000  -0.0000000  -0.0000000  -0.0000000
 NQMom=    0.0000000   0.0000000   0.0000000   0.0000000   0.0000000   0.0000000   0.0000000   0.0000000   0.0000000   0.0000000
 NMagM=    2.7928460   0.0000000   0.0000000   2.7928460   2.7928460   0.0000000   0.0000000   2.6288670   2.6288670   2.6288670
 AtZNuc=   1.0000000   8.0000000   6.0000000   1.0000000   1.0000000   6.0000000   6.0000000   9.0000000   9.0000000   9.0000000

  Atom       111         112
 IAtWgt=          19          19
 AtmWgt=  18.9984032  18.9984032
 NucSpn=           1           1
 AtZEff=  -0.0000000  -0.0000000
 NQMom=    0.0000000   0.0000000
 NMagM=    2.6288670   2.6288670
 AtZNuc=   9.0000000   9.0000000
 Leave Link  101 at Fri Nov 11 22:34:46 2022, MaxMem=  8053063680 cpu:               2.5 elap:               0.2
 (Enter /project/chenjingdan/g16/l123.exe)
 IRC-IRC-IRC-IRC-IRC-IRC-IRC-IRC-IRC-IRC-IRC-IRC-IRC-IRC-IRC-IRC-IRC-IRC
 ------------------------------------------------------------------------
 INPUT DATA FOR L123
 ------------------------------------------------------------------------
 GENERAL PARAMETERS:
 Follow reaction path in both directions.
 Maximum points per path      =  30
 Step size                    =   0.050 bohr
 Integration scheme           = LQA                                 
 Initial Hessian              = CalcFC
 Hessian evaluation           = All updating
 Hessian updating method      = Bofill                              
 ------------------------------------------------------------------------
 IRC-IRC-IRC-IRC-IRC-IRC-IRC-IRC-IRC-IRC-IRC-IRC-IRC-IRC-IRC-IRC-IRC-IRC
 Leave Link  123 at Fri Nov 11 22:34:46 2022, MaxMem=  8053063680 cpu:               0.5 elap:               0.1
 (Enter /project/chenjingdan/g16/l202.exe)
 Symmetry turned off by external request.
 Stoichiometry    C48H46F5N2O10P
 Framework group  C1[X(C48H46F5N2O10P)]
 Deg. of freedom   330
 Full point group                 C1      NOp   1
                          Input orientation:                          
 ---------------------------------------------------------------------
 Center     Atomic      Atomic             Coordinates (Angstroms)
 Number     Number       Type             X           Y           Z
 ---------------------------------------------------------------------
      1          8           0        0.338138    5.313774   -1.995682
      2          7           0       -1.513210    2.694312   -0.275172
      3          8           0       -1.675601    4.482432   -2.460292
      4          8           0       -3.375831    3.881121   -0.838302
      5          6           0        0.221169    4.193923    0.646178
      6          7           0       -6.183948   -1.190430    1.904798
      7          6           0       -5.278968   -0.166810    1.367808
      8          6           0       -0.662991    4.474723   -1.716682
      9          6           0       -3.682679    1.825851    0.321268
     10          6           0       -0.438371    3.617273   -0.601342
     11          6           0       -2.810640    2.856962   -0.298142
     12          6           0       -3.110159    0.793832    1.061918
     13          6           0       -5.855309    0.882140    0.663138
     14          6           0       -5.061910    1.888160    0.128198
     15          6           0       -3.888428   -0.248769    1.561548
     16          8           0       -7.225688   -1.372941    1.298508
     17          8           0       -5.851087   -1.759660    2.922878
     18          1           0        0.064518    5.820863   -2.774282
     19          1           0       -1.165509    1.750523   -0.040142
     20          1           0       -2.715731    4.232922   -1.615942
     21          1           0        0.594860    3.389234    1.286658
     22          1           0        1.083719    4.795734    0.354388
     23          1           0       -0.469541    4.815633    1.227848
     24          1           0       -2.043389    0.767152    1.229118
     25          1           0       -5.493400    2.705800   -0.436132
     26          8           0        1.550560    1.948534   -0.776202
     27          8           0        1.487062   -0.219106   -1.919812
     28          6           0       -4.020800    2.259581   -3.576542
     29          8           0        2.144252   -0.207965    0.528108
     30          6           0        0.474971    0.279604   -4.550542
     31          6           0        2.061479    4.877395    4.432508
     32          8           0       -0.251059    0.247413   -0.011312
     33          6           0        4.173319    3.692826    0.029868
     34          6           0        3.146242    0.060575    3.438778
     35          6           0       -2.720717   -2.004958   -1.270342
     36          6           0       -3.275568    0.113661   -2.465092
     37          6           0        2.081143   -2.514375   -1.648162
     38          6           0        0.494154   -4.252766   -2.197682
     39          6           0       -1.761229    1.205802   -3.953202
     40          6           0       -2.997999    1.184262   -3.314132
     41          6           0        4.090512   -1.122424   -0.543162
     42          6           0       -1.103768   -0.864627   -2.890162
     43          6           0        1.164902   -1.561976   -2.060972
     44          6           0        3.517833   -2.380065   -1.179562
     45          6           0       -0.815979    0.194613   -3.772662
     46          6           0        4.499283   -2.557334   -2.374812
     47          6           0       -2.352438   -0.905178   -2.235772
     48          6           0        1.708144   -3.860876   -1.650512
     49          6           0       -0.377476   -3.279497   -2.682172
     50          6           0        4.267711    0.869476    0.849198
     51          6           0        3.511662   -0.158915    0.272828
     52          6           0        5.858213   -2.084623   -1.834202
     53          6           0       -0.090017   -1.913427   -2.577312
     54          6           0        6.231592   -0.009693   -0.293172
     55          6           0        3.658560    1.889915    1.751608
     56          6           0        5.451662   -1.013653   -0.849772
     57          6           0        2.629280    2.482855    3.853298
     58          6           0        5.636741    0.910767    0.564568
     59          6           0        3.139091    1.503165    2.998648
     60          6           0        3.164359    4.193215    2.271878
     61          6           0        3.664690    3.247265    1.379238
     62          6           0        2.634959    3.832125    3.510338
     63          6           0        3.608034   -3.614965   -0.239682
     64          6           0        2.753104   -4.691505   -0.939892
     65         15           0        1.133431    0.489364   -0.516062
     66          1           0        0.690830    2.702044   -0.890902
     67          1           0       -3.539490    3.227871   -3.735692
     68          1           0       -4.606290    2.025211   -4.471802
     69          1           0       -4.720470    2.353071   -2.741482
     70          1           0        0.281321    0.662414   -5.555812
     71          1           0        0.958552   -0.695246   -4.642132
     72          1           0        1.182791    0.952384   -4.058352
     73          1           0        1.908989    4.479474    5.438198
     74          1           0        2.721798    5.745895    4.504998
     75          1           0        1.093469    5.233724    4.063908
     76          1           0        3.840069    4.711946   -0.182462
     77          1           0        5.266759    3.685206   -0.018312
     78          1           0        3.798510    3.035556   -0.758102
     79          1           0        2.394352   -0.521025    2.897818
     80          1           0        2.933962   -0.015735    4.507378
     81          1           0        4.117532   -0.404964    3.247828
     82          1           0       -3.128057   -2.880898   -1.786222
     83          1           0       -1.856587   -2.348908   -0.700482
     84          1           0       -3.493527   -1.663099   -0.577322
     85          1           0       -4.237418    0.071591   -1.956072
     86          1           0        0.210465   -5.300517   -2.224832
     87          1           0       -1.526730    2.029542   -4.624672
     88          1           0        4.176063   -1.897504   -3.186872
     89          1           0        4.507054   -3.583044   -2.753432
     90          1           0       -1.331116   -3.574807   -3.107922
     91          1           0        6.519523   -1.703343   -2.616802
     92          1           0        6.391243   -2.898553   -1.327422
     93          1           0        7.289162    0.062808   -0.528462
     94          1           0        2.231700    2.180875    4.819878
     95          1           0        6.232721    1.695157    1.021648
     96          1           0        3.171669    5.243065    1.983418
     97          1           0        4.640834   -3.924514   -0.056402
     98          1           0        3.153304   -3.350595    0.721538
     99          1           0        2.299625   -5.391345   -0.232122
    100          1           0        3.348325   -5.282725   -1.645892
    101          1           0       -6.930529    0.874479    0.531758
    102          8           0       -3.353678   -1.333309    2.152528
    103          6           0       -1.944948   -1.469938    2.079708
    104          1           0       -1.545628   -1.140568    1.115208
    105          1           0       -1.452358   -0.907788    2.881138
    106          6           0       -1.626497   -2.940268    2.242768
    107          6           0       -0.140687   -3.218507    1.974188
    108          9           0       -1.906556   -3.377318    3.486818
    109          9           0       -2.335746   -3.679478    1.364608
    110          9           0        0.178873   -2.853437    0.730778
    111          9           0        0.612583   -2.517836    2.827048
    112          9           0        0.132824   -4.509997    2.123048
 ---------------------------------------------------------------------
 Rotational constants (GHZ):           0.0464883           0.0362389           0.0309842
 Leave Link  202 at Fri Nov 11 22:34:46 2022, MaxMem=  8053063680 cpu:               0.7 elap:               0.1
 (Enter /project/chenjingdan/g16/l301.exe)
 Standard basis: 6-31G(d,p) (6D, 7F)
 Ernie: Thresh=  0.10000D-02 Tol=  0.10000D-05 Strict=F.
  1224 basis functions,  2194 primitive gaussians,  1224 cartesian basis functions
   244 alpha electrons      244 beta electrons
       nuclear repulsion energy     12300.3870265575 Hartrees.
 IExCor= 4336 DFT=T Ex+Corr=M062X ExCW=0 ScaHFX=  0.540000
 ScaDFX=  1.000000  1.000000  1.000000  1.000000 ScalE2=  1.000000  1.000000
 IRadAn=      5 IRanWt=     -1 IRanGd=            0 ICorTp=0 IEmpDi=  4
 NAtoms=  112 NActive=  112 NUniq=  112 SFac= 1.00D+00 NAtFMM=   60 NAOKFM=T Big=T
 Integral buffers will be    131072 words long.
 Raffenetti 2 integral format.
 Two-electron integral symmetry is turned off.
 Leave Link  301 at Fri Nov 11 22:34:47 2022, MaxMem=  8053063680 cpu:               1.0 elap:               0.1
 (Enter /project/chenjingdan/g16/l302.exe)
 NPDir=0 NMtPBC=     1 NCelOv=     1 NCel=       1 NClECP=     1 NCelD=      1
         NCelK=      1 NCelE2=     1 NClLst=     1 CellRange=     0.0.
 One-electron integrals computed using PRISM.
 NBasis=  1224 RedAO= T EigKep=  2.33D-04  NBF=  1224
 NBsUse=  1224 1.00D-06 EigRej= -1.00D+00 NBFU=  1224
 Precomputing XC quadrature grid using
 IXCGrd= 4 IRadAn=           5 IRanWt=          -1 IRanGd=           0 AccXCQ= 0.00D+00.
 Generated NRdTot=       0 NPtTot=           0 NUsed=           0 NTot=          32
 NSgBfM=  1145  1138  1139  1145  1145 MxSgAt=   112 MxSgA2=   112.
 Leave Link  302 at Fri Nov 11 22:34:49 2022, MaxMem=  8053063680 cpu:              45.4 elap:               2.9
 (Enter /project/chenjingdan/g16/l303.exe)
 DipDrv:  MaxL=1.
 Leave Link  303 at Fri Nov 11 22:34:50 2022, MaxMem=  8053063680 cpu:               2.7 elap:               0.2
 (Enter /project/chenjingdan/g16/l401.exe)
 ExpMin= 9.98D-02 ExpMax= 1.94D+04 ExpMxC= 2.91D+03 IAcc=3 IRadAn=         5 AccDes= 0.00D+00
 Harris functional with IExCor= 1009 and IRadAn=       5 diagonalized for initial guess.
 HarFok:  IExCor= 1009 AccDes= 0.00D+00 IRadAn=         5 IDoV= 1 UseB2=F ITyADJ=14
 ICtDFT=  3500011 ScaDFX=  1.000000  1.000000  1.000000  1.000000
 FoFCou: FMM=F IPFlag=           0 FMFlag=      100000 FMFlg1=        2001
         NFxFlg=           0 DoJE=T BraDBF=F KetDBF=T FulRan=T
         wScrn=  0.000000 ICntrl=       500 IOpCl=  0 I1Cent=   200000004 NGrid=           0
         NMat0=    1 NMatS0=      1 NMatT0=    0 NMatD0=    1 NMtDS0=    0 NMtDT0=    0
 Symmetry not used in FoFCou.
 Harris En= -3556.24706771951    
 JPrj=0 DoOrth=F DoCkMO=F.
 Leave Link  401 at Fri Nov 11 22:34:57 2022, MaxMem=  8053063680 cpu:             118.9 elap:               7.5
 (Enter /project/chenjingdan/g16/l502.exe)
 Two-electron integral symmetry not used.
 Closed shell SCF:
 Using DIIS extrapolation, IDIIS=  1040.
 NGot=  8053063680 LenX=  8050035410 LenY=  8048536010
 Requested convergence on RMS density matrix=1.00D-08 within 128 cycles.
 Requested convergence on MAX density matrix=1.00D-06.
 Requested convergence on             energy=1.00D-06.
 No special actions if energy rises.
 Fock matrices will be formed incrementally for  20 cycles.
 Integral accuracy reduced to 1.0D-05 until final iterations.

 Cycle   1  Pass 0  IDiag  1:
 FoFJK:  IHMeth= 1 ICntrl=       0 DoSepK=F KAlg= 0 I1Cent=           0 FoldK=F
 IRaf= 740000000 NMat=       1 IRICut=       1 DoRegI=T DoRafI=F ISym2E= 0 IDoP0=0 IntGTp=1.
 FoFCou: FMM=T IPFlag=           0 FMFlag=      100000 FMFlg1=        2001
         NFxFlg=           0 DoJE=F BraDBF=F KetDBF=F FulRan=T
         wScrn=  0.000000 ICntrl=         0 IOpCl=  0 I1Cent=           0 NGrid=           0
         NMat0=    1 NMatS0=      1 NMatT0=    0 NMatD0=    1 NMtDS0=    0 NMtDT0=    0
 Symmetry not used in FoFCou.
 FMM levels:  10  Number of levels for PrismC:   9
 E= -3556.41642602423    
 DIIS: error= 1.66D-02 at cycle   1 NSaved=   1.
 NSaved= 1 IEnMin= 1 EnMin= -3556.41642602423     IErMin= 1 ErrMin= 1.66D-02
 ErrMax= 1.66D-02  0.00D+00 EMaxC= 1.00D-01 BMatC= 1.90D+00 BMatP= 1.90D+00
 IDIUse=3 WtCom= 8.34D-01 WtEn= 1.66D-01
 Coeff-Com:  0.100D+01
 Coeff-En:   0.100D+01
 Coeff:      0.100D+01
 Gap=     0.180 Goal=   None    Shift=    0.000
 GapD=    0.180 DampG=1.000 DampE=0.500 DampFc=0.5000 IDamp=-1.
 Damping current iteration by 5.00D-01
 RMSDP=1.96D-03 MaxDP=2.39D-01              OVMax= 2.12D-01

 Cycle   2  Pass 0  IDiag  1:
 RMSU=  9.67D-04    CP:  9.84D-01
 E= -3557.17618914992     Delta-E=       -0.759763125685 Rises=F Damp=T
 DIIS: error= 7.78D-03 at cycle   2 NSaved=   2.
 NSaved= 2 IEnMin= 2 EnMin= -3557.17618914992     IErMin= 2 ErrMin= 7.78D-03
 ErrMax= 7.78D-03  0.00D+00 EMaxC= 1.00D-01 BMatC= 1.62D-01 BMatP= 1.90D+00
 IDIUse=3 WtCom= 9.22D-01 WtEn= 7.78D-02
 Coeff-Com: -0.508D-01 0.105D+01
 Coeff-En:   0.000D+00 0.100D+01
 Coeff:     -0.469D-01 0.105D+01
 Gap=     0.228 Goal=   None    Shift=    0.000
 RMSDP=6.10D-04 MaxDP=9.26D-02 DE=-7.60D-01 OVMax= 1.16D-01

 Cycle   3  Pass 0  IDiag  1:
 RMSU=  5.95D-04    CP:  9.73D-01  1.08D+00
 E= -3557.89578217166     Delta-E=       -0.719593021742 Rises=F Damp=F
 DIIS: error= 6.26D-03 at cycle   3 NSaved=   3.
 NSaved= 3 IEnMin= 3 EnMin= -3557.89578217166     IErMin= 3 ErrMin= 6.26D-03
 ErrMax= 6.26D-03  0.00D+00 EMaxC= 1.00D-01 BMatC= 8.29D-02 BMatP= 1.62D-01
 IDIUse=3 WtCom= 9.37D-01 WtEn= 6.26D-02
 Coeff-Com: -0.903D-01 0.452D+00 0.639D+00
 Coeff-En:   0.000D+00 0.000D+00 0.100D+01
 Coeff:     -0.846D-01 0.423D+00 0.661D+00
 Gap=     0.202 Goal=   None    Shift=    0.000
 RMSDP=3.01D-04 MaxDP=3.96D-02 DE=-7.20D-01 OVMax= 4.98D-02

 Cycle   4  Pass 0  IDiag  1:
 RMSU=  2.22D-04    CP:  9.75D-01  1.15D+00  6.77D-01
 E= -3557.94846603018     Delta-E=       -0.052683858523 Rises=F Damp=F
 DIIS: error= 2.60D-03 at cycle   4 NSaved=   4.
 NSaved= 4 IEnMin= 4 EnMin= -3557.94846603018     IErMin= 4 ErrMin= 2.60D-03
 ErrMax= 2.60D-03  0.00D+00 EMaxC= 1.00D-01 BMatC= 1.62D-02 BMatP= 8.29D-02
 IDIUse=3 WtCom= 9.74D-01 WtEn= 2.60D-02
 Coeff-Com: -0.312D-01 0.889D-01 0.342D+00 0.601D+00
 Coeff-En:   0.000D+00 0.000D+00 0.160D+00 0.840D+00
 Coeff:     -0.304D-01 0.865D-01 0.337D+00 0.607D+00
 Gap=     0.195 Goal=   None    Shift=    0.000
 RMSDP=1.22D-04 MaxDP=1.21D-02 DE=-5.27D-02 OVMax= 1.93D-02

 Cycle   5  Pass 0  IDiag  1:
 RMSU=  5.45D-05    CP:  9.74D-01  1.14D+00  7.75D-01  5.88D-01
 E= -3557.96145779028     Delta-E=       -0.012991760095 Rises=F Damp=F
 DIIS: error= 3.27D-04 at cycle   5 NSaved=   5.
 NSaved= 5 IEnMin= 5 EnMin= -3557.96145779028     IErMin= 5 ErrMin= 3.27D-04
 ErrMax= 3.27D-04  0.00D+00 EMaxC= 1.00D-01 BMatC= 9.13D-04 BMatP= 1.62D-02
 IDIUse=3 WtCom= 9.97D-01 WtEn= 3.27D-03
 Coeff-Com: -0.108D-01 0.229D-01 0.139D+00 0.307D+00 0.541D+00
 Coeff-En:   0.000D+00 0.000D+00 0.000D+00 0.000D+00 0.100D+01
 Coeff:     -0.107D-01 0.228D-01 0.139D+00 0.306D+00 0.542D+00
 Gap=     0.196 Goal=   None    Shift=    0.000
 RMSDP=3.15D-05 MaxDP=2.43D-03 DE=-1.30D-02 OVMax= 5.47D-03

 Cycle   6  Pass 0  IDiag  1:
 RMSU=  1.75D-05    CP:  9.74D-01  1.15D+00  7.72D-01  6.49D-01  5.98D-01
 E= -3557.96227384401     Delta-E=       -0.000816053733 Rises=F Damp=F
 DIIS: error= 1.03D-04 at cycle   6 NSaved=   6.
 NSaved= 6 IEnMin= 6 EnMin= -3557.96227384401     IErMin= 6 ErrMin= 1.03D-04
 ErrMax= 1.03D-04  0.00D+00 EMaxC= 1.00D-01 BMatC= 5.75D-05 BMatP= 9.13D-04
 IDIUse=3 WtCom= 9.99D-01 WtEn= 1.03D-03
 Coeff-Com: -0.172D-02 0.193D-02 0.295D-01 0.765D-01 0.245D+00 0.648D+00
 Coeff-En:   0.000D+00 0.000D+00 0.000D+00 0.000D+00 0.000D+00 0.100D+01
 Coeff:     -0.172D-02 0.193D-02 0.295D-01 0.764D-01 0.245D+00 0.649D+00
 Gap=     0.196 Goal=   None    Shift=    0.000
 RMSDP=8.87D-06 MaxDP=1.02D-03 DE=-8.16D-04 OVMax= 2.11D-03

 Cycle   7  Pass 0  IDiag  1:
 RMSU=  5.67D-06    CP:  9.74D-01  1.15D+00  7.77D-01  6.46D-01  6.80D-01
                    CP:  7.71D-01
 E= -3557.96233982393     Delta-E=       -0.000065979915 Rises=F Damp=F
 DIIS: error= 7.58D-05 at cycle   7 NSaved=   7.
 NSaved= 7 IEnMin= 7 EnMin= -3557.96233982393     IErMin= 7 ErrMin= 7.58D-05
 ErrMax= 7.58D-05  0.00D+00 EMaxC= 1.00D-01 BMatC= 1.04D-05 BMatP= 5.75D-05
 IDIUse=1 WtCom= 1.00D+00 WtEn= 0.00D+00
 Coeff-Com:  0.363D-03-0.177D-02-0.709D-03 0.437D-02 0.739D-01 0.353D+00
 Coeff-Com:  0.571D+00
 Coeff:      0.363D-03-0.177D-02-0.709D-03 0.437D-02 0.739D-01 0.353D+00
 Coeff:      0.571D+00
 Gap=     0.197 Goal=   None    Shift=    0.000
 RMSDP=3.43D-06 MaxDP=5.75D-04 DE=-6.60D-05 OVMax= 1.05D-03

 Initial convergence to 1.0D-05 achieved.  Increase integral accuracy.
 Cycle   8  Pass 1  IDiag  1:
 E= -3557.96217890679     Delta-E=        0.000160917138 Rises=F Damp=F
 DIIS: error= 3.32D-04 at cycle   1 NSaved=   1.
 NSaved= 1 IEnMin= 1 EnMin= -3557.96217890679     IErMin= 1 ErrMin= 3.32D-04
 ErrMax= 3.32D-04  0.00D+00 EMaxC= 1.00D-01 BMatC= 8.10D-05 BMatP= 8.10D-05
 IDIUse=3 WtCom= 9.97D-01 WtEn= 3.32D-03
 Coeff-Com:  0.100D+01
 Coeff-En:   0.100D+01
 Coeff:      0.100D+01
 Gap=     0.196 Goal=   None    Shift=    0.000
 RMSDP=3.43D-06 MaxDP=5.75D-04 DE= 1.61D-04 OVMax= 1.18D-03

 Cycle   9  Pass 1  IDiag  1:
 RMSU=  1.30D-04    CP:  1.00D+00
 E= -3557.96224477866     Delta-E=       -0.000065871871 Rises=F Damp=F
 DIIS: error= 7.01D-05 at cycle   2 NSaved=   2.
 NSaved= 2 IEnMin= 2 EnMin= -3557.96224477866     IErMin= 2 ErrMin= 7.01D-05
 ErrMax= 7.01D-05  0.00D+00 EMaxC= 1.00D-01 BMatC= 4.27D-06 BMatP= 8.10D-05
 IDIUse=1 WtCom= 1.00D+00 WtEn= 0.00D+00
 Coeff-Com:  0.537D-01 0.946D+00
 Coeff:      0.537D-01 0.946D+00
 Gap=     0.197 Goal=   None    Shift=    0.000
 RMSDP=5.21D-06 MaxDP=8.23D-04 DE=-6.59D-05 OVMax= 2.04D-03

 Cycle  10  Pass 1  IDiag  1:
 RMSU=  4.00D-06    CP:  1.00D+00  1.03D+00
 E= -3557.96223777704     Delta-E=        0.000007001623 Rises=F Damp=F
 DIIS: error= 1.29D-04 at cycle   3 NSaved=   3.
 NSaved= 3 IEnMin= 2 EnMin= -3557.96224477866     IErMin= 2 ErrMin= 7.01D-05
 ErrMax= 1.29D-04  0.00D+00 EMaxC= 1.00D-01 BMatC= 1.35D-05 BMatP= 4.27D-06
 IDIUse=3 WtCom= 4.68D-01 WtEn= 5.32D-01
 Coeff-Com: -0.145D-01 0.648D+00 0.366D+00
 Coeff-En:   0.000D+00 0.710D+00 0.290D+00
 Coeff:     -0.678D-02 0.681D+00 0.326D+00
 Gap=     0.197 Goal=   None    Shift=    0.000
 RMSDP=2.17D-06 MaxDP=4.83D-04 DE= 7.00D-06 OVMax= 1.22D-03

 Cycle  11  Pass 1  IDiag  1:
 RMSU=  7.12D-07    CP:  1.00D+00  1.03D+00  4.92D-01
 E= -3557.96224808604     Delta-E=       -0.000010309004 Rises=F Damp=F
 DIIS: error= 1.14D-05 at cycle   4 NSaved=   4.
 NSaved= 4 IEnMin= 4 EnMin= -3557.96224808604     IErMin= 4 ErrMin= 1.14D-05
 ErrMax= 1.14D-05  0.00D+00 EMaxC= 1.00D-01 BMatC= 1.55D-07 BMatP= 4.27D-06
 IDIUse=1 WtCom= 1.00D+00 WtEn= 0.00D+00
 Coeff-Com: -0.681D-02 0.274D+00 0.909D-01 0.642D+00
 Coeff:     -0.681D-02 0.274D+00 0.909D-01 0.642D+00
 Gap=     0.196 Goal=   None    Shift=    0.000
 RMSDP=3.27D-07 MaxDP=4.49D-05 DE=-1.03D-05 OVMax= 1.24D-04

 Cycle  12  Pass 1  IDiag  1:
 RMSU=  1.87D-07    CP:  1.00D+00  1.03D+00  4.28D-01  1.09D+00
 E= -3557.96224821464     Delta-E=       -0.000000128603 Rises=F Damp=F
 DIIS: error= 1.21D-06 at cycle   5 NSaved=   5.
 NSaved= 5 IEnMin= 5 EnMin= -3557.96224821464     IErMin= 5 ErrMin= 1.21D-06
 ErrMax= 1.21D-06  0.00D+00 EMaxC= 1.00D-01 BMatC= 4.52D-09 BMatP= 1.55D-07
 IDIUse=1 WtCom= 1.00D+00 WtEn= 0.00D+00
 Coeff-Com: -0.328D-03 0.115D-02-0.265D-01 0.288D+00 0.738D+00
 Coeff:     -0.328D-03 0.115D-02-0.265D-01 0.288D+00 0.738D+00
 Gap=     0.196 Goal=   None    Shift=    0.000
 RMSDP=9.55D-08 MaxDP=7.05D-06 DE=-1.29D-07 OVMax= 2.91D-05

 Cycle  13  Pass 1  IDiag  1:
 RMSU=  7.28D-08    CP:  1.00D+00  1.03D+00  4.34D-01  1.16D+00  8.35D-01
 E= -3557.96224821976     Delta-E=       -0.000000005119 Rises=F Damp=F
 DIIS: error= 4.27D-07 at cycle   6 NSaved=   6.
 NSaved= 6 IEnMin= 6 EnMin= -3557.96224821976     IErMin= 6 ErrMin= 4.27D-07
 ErrMax= 4.27D-07  0.00D+00 EMaxC= 1.00D-01 BMatC= 9.22D-10 BMatP= 4.52D-09
 IDIUse=1 WtCom= 1.00D+00 WtEn= 0.00D+00
 Coeff-Com:  0.907D-03-0.428D-01-0.280D-01 0.543D-01 0.382D+00 0.634D+00
 Coeff:      0.907D-03-0.428D-01-0.280D-01 0.543D-01 0.382D+00 0.634D+00
 Gap=     0.196 Goal=   None    Shift=    0.000
 RMSDP=3.97D-08 MaxDP=3.45D-06 DE=-5.12D-09 OVMax= 1.58D-05

 Cycle  14  Pass 1  IDiag  1:
 RMSU=  3.33D-08    CP:  1.00D+00  1.03D+00  4.34D-01  1.17D+00  9.22D-01
                    CP:  9.27D-01
 E= -3557.96224822120     Delta-E=       -0.000000001435 Rises=F Damp=F
 DIIS: error= 1.80D-07 at cycle   7 NSaved=   7.
 NSaved= 7 IEnMin= 7 EnMin= -3557.96224822120     IErMin= 7 ErrMin= 1.80D-07
 ErrMax= 1.80D-07  0.00D+00 EMaxC= 1.00D-01 BMatC= 8.24D-11 BMatP= 9.22D-10
 IDIUse=1 WtCom= 1.00D+00 WtEn= 0.00D+00
 Coeff-Com:  0.337D-03-0.143D-01-0.571D-02-0.163D-01 0.323D-01 0.217D+00
 Coeff-Com:  0.787D+00
 Coeff:      0.337D-03-0.143D-01-0.571D-02-0.163D-01 0.323D-01 0.217D+00
 Coeff:      0.787D+00
 Gap=     0.196 Goal=   None    Shift=    0.000
 RMSDP=1.68D-08 MaxDP=1.38D-06 DE=-1.44D-09 OVMax= 6.48D-06

 Cycle  15  Pass 1  IDiag  1:
 RMSU=  1.19D-08    CP:  1.00D+00  1.03D+00  4.35D-01  1.18D+00  9.25D-01
                    CP:  1.07D+00  1.10D+00
 E= -3557.96224822138     Delta-E=       -0.000000000180 Rises=F Damp=F
 DIIS: error= 1.08D-07 at cycle   8 NSaved=   8.
 NSaved= 8 IEnMin= 8 EnMin= -3557.96224822138     IErMin= 8 ErrMin= 1.08D-07
 ErrMax= 1.08D-07  0.00D+00 EMaxC= 1.00D-01 BMatC= 2.37D-11 BMatP= 8.24D-11
 IDIUse=1 WtCom= 1.00D+00 WtEn= 0.00D+00
 Coeff-Com: -0.803D-04 0.455D-02 0.488D-02-0.222D-01-0.883D-01-0.621D-01
 Coeff-Com:  0.389D+00 0.774D+00
 Coeff:     -0.803D-04 0.455D-02 0.488D-02-0.222D-01-0.883D-01-0.621D-01
 Coeff:      0.389D+00 0.774D+00
 Gap=     0.196 Goal=   None    Shift=    0.000
 RMSDP=9.50D-09 MaxDP=1.15D-06 DE=-1.80D-10 OVMax= 3.79D-06

 Cycle  16  Pass 1  IDiag  1:
 RMSU=  5.65D-09    CP:  1.00D+00  1.03D+00  4.35D-01  1.18D+00  9.35D-01
                    CP:  1.13D+00  1.28D+00  9.56D-01
 E= -3557.96224822129     Delta-E=        0.000000000082 Rises=F Damp=F
 DIIS: error= 2.84D-08 at cycle   9 NSaved=   9.
 NSaved= 9 IEnMin= 8 EnMin= -3557.96224822138     IErMin= 9 ErrMin= 2.84D-08
 ErrMax= 2.84D-08  0.00D+00 EMaxC= 1.00D-01 BMatC= 3.33D-12 BMatP= 2.37D-11
 IDIUse=1 WtCom= 1.00D+00 WtEn= 0.00D+00
 Coeff-Com: -0.767D-04 0.377D-02 0.287D-02-0.779D-02-0.434D-01-0.545D-01
 Coeff-Com:  0.814D-01 0.345D+00 0.673D+00
 Coeff:     -0.767D-04 0.377D-02 0.287D-02-0.779D-02-0.434D-01-0.545D-01
 Coeff:      0.814D-01 0.345D+00 0.673D+00
 Gap=     0.196 Goal=   None    Shift=    0.000
 RMSDP=3.22D-09 MaxDP=4.54D-07 DE= 8.19D-11 OVMax= 1.34D-06

 SCF Done:  E(RM062X) =  -3557.96224822     A.U. after   16 cycles
            NFock= 16  Conv=0.32D-08     -V/T= 2.0077
 KE= 3.530873545277D+03 PE=-3.292488787103D+04 EE= 1.353566505098D+04
 Leave Link  502 at Fri Nov 11 22:41:34 2022, MaxMem=  8053063680 cpu:            6337.8 elap:             397.0
 (Enter /project/chenjingdan/g16/l801.exe)
 DoSCS=F DFT=T ScalE2(SS,OS)=  1.000000  1.000000
 Range of M.O.s used for correlation:     1  1224
 NBasis=  1224 NAE=   244 NBE=   244 NFC=     0 NFV=     0
 NROrb=   1224 NOA=   244 NOB=   244 NVA=   980 NVB=   980
 Leave Link  801 at Fri Nov 11 22:41:34 2022, MaxMem=  8053063680 cpu:               0.8 elap:               0.1
 (Enter /project/chenjingdan/g16/l1101.exe)
 Using compressed storage, NAtomX=   112.
 Will process    113 centers per pass.
 Leave Link 1101 at Fri Nov 11 22:41:41 2022, MaxMem=  8053063680 cpu:             104.9 elap:               6.7
 (Enter /project/chenjingdan/g16/l1102.exe)
 Symmetrizing basis deriv contribution to polar:
 IMax=3 JMax=2 DiffMx= 0.00D+00
 Leave Link 1102 at Fri Nov 11 22:41:41 2022, MaxMem=  8053063680 cpu:               2.5 elap:               0.2
 (Enter /project/chenjingdan/g16/l1110.exe)
 Forming Gx(P) for the SCF density, NAtomX=   112.
 Integral derivatives from FoFJK, PRISM(SPDF).
 Do as many integral derivatives as possible in FoFJK.
 G2DrvN: MDV=    8053052008.
 G2DrvN: will do   113 centers at a time, making    1 passes.
 Calling FoFCou, ICntrl=  3107 FMM=T I1Cent=   0 AccDes= 0.00D+00.
 FoFJK:  IHMeth= 1 ICntrl=    3107 DoSepK=F KAlg= 0 I1Cent=           0 FoldK=F
 IRaf=         0 NMat=       1 IRICut=       1 DoRegI=T DoRafI=F ISym2E= 0 IDoP0=0 IntGTp=1.
 FoFCou: FMM=T IPFlag=           0 FMFlag=      100000 FMFlg1=        2001
         NFxFlg=           0 DoJE=F BraDBF=F KetDBF=F FulRan=T
         wScrn=  0.000000 ICntrl=      3107 IOpCl=  0 I1Cent=           0 NGrid=           0
         NMat0=    1 NMatS0=      1 NMatT0=    0 NMatD0=    1 NMtDS0=    0 NMtDT0=    0
 Symmetry not used in FoFCou.
 FMM levels:  10  Number of levels for PrismC:   9
 End of G2Drv F.D. properties file   721 does not exist.
 End of G2Drv F.D. properties file   722 does not exist.
 End of G2Drv F.D. properties file   788 does not exist.
 Leave Link 1110 at Fri Nov 11 23:22:08 2022, MaxMem=  8053063680 cpu:           38807.6 elap:            2426.1
 (Enter /project/chenjingdan/g16/l1002.exe)
 Minotr:  Closed shell wavefunction.
          IDoAtm=11111111111111111111111111111111111111111111111111
          IDoAtm=11111111111111111111111111111111111111111111111111
          IDoAtm=111111111111
          Direct CPHF calculation.
          Differentiating once with respect to nuclear coordinates.
          Requested convergence is 1.0D-08 RMS, and 1.0D-07 maximum.
          Secondary convergence is 1.0D-12 RMS, and 1.0D-12 maximum.
          NewPWx=T KeepS1=F KeepF1=F KeepIn=T MapXYZ=F SortEE=F KeepMc=T.
        34077 words used for storage of precomputed grid.
 Two-electron integral symmetry not used.
          MDV=    8053063680 using IRadAn=       1.
          Solving linear equations simultaneously, MaxMat=      72.
 FoF2E skips out because all densities are zero.
 CalDSu exits because no D1Ps are significant.
 FoFJK:  IHMeth= 1 ICntrl=       0 DoSepK=F KAlg= 0 I1Cent=           0 FoldK=F
 IRaf= 660000000 NMat=      72 IRICut=       1 DoRegI=T DoRafI=F ISym2E= 0 IDoP0=0 IntGTp=1.
 FoFCou: FMM=T IPFlag=           0 FMFlag=      100000 FMFlg1=        2001
         NFxFlg=           0 DoJE=F BraDBF=F KetDBF=F FulRan=T
         wScrn=  0.000000 ICntrl=         0 IOpCl=  0 I1Cent=           0 NGrid=           0
         NMat0=   72 NMatS0=     72 NMatT0=    0 NMatD0=   72 NMtDS0=    0 NMtDT0=    0
 Symmetry not used in FoFCou.
 FMM levels:  10  Number of levels for PrismC:   9
          There are   339 degrees of freedom in the 1st order CPHF.  IDoFFX=6 NUNeed=     0.
    333 vectors produced by pass  0 Test12= 2.39D-13 1.00D-09 XBig12= 1.83D-01 1.01D-01.
 AX will form    72 AO Fock derivatives at one time.
    333 vectors produced by pass  1 Test12= 2.39D-13 1.00D-09 XBig12= 8.11D-02 1.34D-01.
    333 vectors produced by pass  2 Test12= 2.39D-13 1.00D-09 XBig12= 2.51D-03 7.16D-03.
    333 vectors produced by pass  3 Test12= 2.39D-13 1.00D-09 XBig12= 2.85D-05 3.94D-04.
    333 vectors produced by pass  4 Test12= 2.39D-13 1.00D-09 XBig12= 2.77D-07 4.24D-05.
    333 vectors produced by pass  5 Test12= 2.39D-13 1.00D-09 XBig12= 1.09D-09 2.06D-06.
    211 vectors produced by pass  6 Test12= 2.39D-13 1.00D-09 XBig12= 3.57D-12 1.23D-07.
     13 vectors produced by pass  7 Test12= 2.39D-13 1.00D-09 XBig12= 1.01D-14 6.05D-09.
 InvSVY:  IOpt=1 It=  1 EMax= 5.55D-16
 Solved reduced A of dimension  2222 with   339 vectors.
 End of Minotr F.D. properties file   721 does not exist.
 End of Minotr F.D. properties file   722 does not exist.
 End of Minotr F.D. properties file   788 does not exist.
 Leave Link 1002 at Sat Nov 12 01:32:50 2022, MaxMem=  8053063680 cpu:          125448.0 elap:            7842.3
 (Enter /project/chenjingdan/g16/l601.exe)
 Copying SCF densities to generalized density rwf, IOpCl= 0 IROHF=0.
 Hyperfine terms turned off by default for NAtoms > 100.

 **********************************************************************

            Population analysis using the SCF Density.

 **********************************************************************

 Alpha  occ. eigenvalues --  -78.21470 -25.30703 -25.30666 -25.30488 -25.28641
 Alpha  occ. eigenvalues --  -25.28413 -19.71092 -19.70203 -19.69193 -19.68598
 Alpha  occ. eigenvalues --  -19.68312 -19.67901 -19.67650 -19.65549 -19.64517
 Alpha  occ. eigenvalues --  -19.62066 -15.01601 -14.83238 -10.81766 -10.74414
 Alpha  occ. eigenvalues --  -10.71182 -10.70377 -10.66484 -10.63270 -10.63242
 Alpha  occ. eigenvalues --  -10.61851 -10.61607 -10.60960 -10.59762 -10.59125
 Alpha  occ. eigenvalues --  -10.58910 -10.57965 -10.57622 -10.56152 -10.56098
 Alpha  occ. eigenvalues --  -10.55984 -10.55869 -10.55757 -10.55647 -10.55545
 Alpha  occ. eigenvalues --  -10.55431 -10.55405 -10.55392 -10.55291 -10.55256
 Alpha  occ. eigenvalues --  -10.55248 -10.55222 -10.55207 -10.55204 -10.55156
 Alpha  occ. eigenvalues --  -10.55124 -10.55101 -10.55058 -10.55035 -10.55010
 Alpha  occ. eigenvalues --  -10.54871 -10.54100 -10.53793 -10.53687 -10.53612
 Alpha  occ. eigenvalues --  -10.53609 -10.53482 -10.53431 -10.53082 -10.52977
 Alpha  occ. eigenvalues --  -10.52928  -6.99473  -5.11285  -5.11212  -5.11154
 Alpha  occ. eigenvalues --   -1.48049  -1.42094  -1.38586  -1.38474  -1.36942
 Alpha  occ. eigenvalues --   -1.35843  -1.25733  -1.23552  -1.23503  -1.23436
 Alpha  occ. eigenvalues --   -1.18239  -1.18059  -1.14997  -1.13860  -1.09345
 Alpha  occ. eigenvalues --   -1.08312  -1.01424  -1.00015  -0.97677  -0.96626
 Alpha  occ. eigenvalues --   -0.95842  -0.94131  -0.93163  -0.92576  -0.90599
 Alpha  occ. eigenvalues --   -0.89109  -0.88314  -0.87946  -0.87271  -0.87208
 Alpha  occ. eigenvalues --   -0.87106  -0.85858  -0.84107  -0.83992  -0.82610
 Alpha  occ. eigenvalues --   -0.82177  -0.81929  -0.79414  -0.78566  -0.78493
 Alpha  occ. eigenvalues --   -0.77652  -0.77282  -0.76307  -0.76212  -0.75999
 Alpha  occ. eigenvalues --   -0.75954  -0.75524  -0.73163  -0.72854  -0.71730
 Alpha  occ. eigenvalues --   -0.71628  -0.71085  -0.70644  -0.70066  -0.69821
 Alpha  occ. eigenvalues --   -0.69218  -0.68557  -0.67551  -0.67473  -0.67041
 Alpha  occ. eigenvalues --   -0.65826  -0.65716  -0.64616  -0.64575  -0.64321
 Alpha  occ. eigenvalues --   -0.63971  -0.63615  -0.63267  -0.62629  -0.62419
 Alpha  occ. eigenvalues --   -0.61526  -0.60792  -0.60397  -0.60021  -0.59397
 Alpha  occ. eigenvalues --   -0.58685  -0.57982  -0.57883  -0.57664  -0.57469
 Alpha  occ. eigenvalues --   -0.57378  -0.57251  -0.56807  -0.56605  -0.55953
 Alpha  occ. eigenvalues --   -0.55395  -0.55248  -0.55168  -0.54941  -0.54724
 Alpha  occ. eigenvalues --   -0.54467  -0.54051  -0.53632  -0.53514  -0.53176
 Alpha  occ. eigenvalues --   -0.53066  -0.52778  -0.52292  -0.51837  -0.51482
 Alpha  occ. eigenvalues --   -0.51354  -0.50940  -0.50777  -0.50430  -0.49807
 Alpha  occ. eigenvalues --   -0.49716  -0.49337  -0.49107  -0.48822  -0.48696
 Alpha  occ. eigenvalues --   -0.48642  -0.48355  -0.48130  -0.47872  -0.47553
 Alpha  occ. eigenvalues --   -0.47435  -0.47161  -0.46877  -0.46669  -0.46620
 Alpha  occ. eigenvalues --   -0.46344  -0.46119  -0.46021  -0.45797  -0.45630
 Alpha  occ. eigenvalues --   -0.45607  -0.45442  -0.45179  -0.45100  -0.44983
 Alpha  occ. eigenvalues --   -0.44819  -0.44726  -0.44121  -0.43749  -0.43477
 Alpha  occ. eigenvalues --   -0.43164  -0.42765  -0.42228  -0.42081  -0.41871
 Alpha  occ. eigenvalues --   -0.41701  -0.41667  -0.41491  -0.41038  -0.40966
 Alpha  occ. eigenvalues --   -0.40305  -0.39890  -0.39700  -0.39445  -0.39118
 Alpha  occ. eigenvalues --   -0.38929  -0.38712  -0.38610  -0.38567  -0.38317
 Alpha  occ. eigenvalues --   -0.38052  -0.37964  -0.37687  -0.37644  -0.37307
 Alpha  occ. eigenvalues --   -0.37134  -0.36920  -0.36821  -0.34700  -0.31570
 Alpha  occ. eigenvalues --   -0.30336  -0.30306  -0.29864  -0.28538  -0.28306
 Alpha  occ. eigenvalues --   -0.28008  -0.27861  -0.26947  -0.26463
 Alpha virt. eigenvalues --   -0.06813  -0.00335   0.00120   0.01247   0.01508
 Alpha virt. eigenvalues --    0.02416   0.02845   0.03794   0.04398   0.04440
 Alpha virt. eigenvalues --    0.05205   0.05602   0.07279   0.09132   0.10001
 Alpha virt. eigenvalues --    0.11203   0.12088   0.12739   0.13278   0.13614
 Alpha virt. eigenvalues --    0.13880   0.14003   0.14529   0.14855   0.15093
 Alpha virt. eigenvalues --    0.15650   0.15931   0.16337   0.16375   0.16579
 Alpha virt. eigenvalues --    0.16875   0.17206   0.17258   0.17418   0.17793
 Alpha virt. eigenvalues --    0.17909   0.18287   0.18469   0.18593   0.18857
 Alpha virt. eigenvalues --    0.18989   0.19273   0.19474   0.19752   0.19988
 Alpha virt. eigenvalues --    0.20261   0.20615   0.20670   0.21035   0.21081
 Alpha virt. eigenvalues --    0.21239   0.21594   0.21954   0.22165   0.22513
 Alpha virt. eigenvalues --    0.22749   0.22859   0.23036   0.23372   0.23637
 Alpha virt. eigenvalues --    0.23810   0.24257   0.24363   0.24384   0.24543
 Alpha virt. eigenvalues --    0.24870   0.25106   0.25413   0.25551   0.26001
 Alpha virt. eigenvalues --    0.26382   0.26612   0.26981   0.27169   0.27398
 Alpha virt. eigenvalues --    0.27945   0.28007   0.28088   0.28812   0.28903
 Alpha virt. eigenvalues --    0.29134   0.29174   0.29486   0.29824   0.29847
 Alpha virt. eigenvalues --    0.30179   0.30631   0.30868   0.31160   0.31207
 Alpha virt. eigenvalues --    0.31553   0.31674   0.31766   0.32202   0.32439
 Alpha virt. eigenvalues --    0.32811   0.33161   0.33546   0.33701   0.34192
 Alpha virt. eigenvalues --    0.34383   0.35642   0.36030   0.36915   0.37295
 Alpha virt. eigenvalues --    0.37584   0.38142   0.38233   0.39423   0.39689
 Alpha virt. eigenvalues --    0.40164   0.40326   0.41092   0.41354   0.41632
 Alpha virt. eigenvalues --    0.41845   0.42012   0.42532   0.42653   0.42761
 Alpha virt. eigenvalues --    0.43479   0.43641   0.44472   0.44751   0.45525
 Alpha virt. eigenvalues --    0.45908   0.46048   0.46663   0.46863   0.47748
 Alpha virt. eigenvalues --    0.49681   0.49860   0.50341   0.51117   0.51665
 Alpha virt. eigenvalues --    0.52314   0.52734   0.52992   0.53393   0.53499
 Alpha virt. eigenvalues --    0.53958   0.54146   0.54393   0.54844   0.55410
 Alpha virt. eigenvalues --    0.55527   0.55684   0.56118   0.56251   0.56551
 Alpha virt. eigenvalues --    0.56993   0.57088   0.57258   0.57368   0.57659
 Alpha virt. eigenvalues --    0.58321   0.58563   0.58730   0.59069   0.59144
 Alpha virt. eigenvalues --    0.59401   0.59501   0.59803   0.60122   0.60280
 Alpha virt. eigenvalues --    0.60356   0.60600   0.60806   0.61201   0.61398
 Alpha virt. eigenvalues --    0.61559   0.61754   0.62074   0.62275   0.62501
 Alpha virt. eigenvalues --    0.62782   0.62872   0.62970   0.63419   0.63482
 Alpha virt. eigenvalues --    0.64006   0.64170   0.64681   0.64771   0.64863
 Alpha virt. eigenvalues --    0.65071   0.65528   0.65652   0.65810   0.66288
 Alpha virt. eigenvalues --    0.66655   0.66964   0.67027   0.67244   0.67599
 Alpha virt. eigenvalues --    0.67781   0.68325   0.68652   0.69098   0.69255
 Alpha virt. eigenvalues --    0.69714   0.69880   0.70399   0.70702   0.71134
 Alpha virt. eigenvalues --    0.71480   0.71776   0.71872   0.72337   0.72759
 Alpha virt. eigenvalues --    0.73117   0.73363   0.74006   0.74482   0.74653
 Alpha virt. eigenvalues --    0.75070   0.75221   0.75914   0.76534   0.76907
 Alpha virt. eigenvalues --    0.77221   0.77454   0.77809   0.77916   0.78453
 Alpha virt. eigenvalues --    0.78763   0.79110   0.79294   0.79588   0.79837
 Alpha virt. eigenvalues --    0.79970   0.80645   0.80887   0.80957   0.81530
 Alpha virt. eigenvalues --    0.81599   0.82094   0.82327   0.82665   0.83002
 Alpha virt. eigenvalues --    0.83168   0.83349   0.84054   0.84163   0.84456
 Alpha virt. eigenvalues --    0.84625   0.84729   0.85501   0.85632   0.85882
 Alpha virt. eigenvalues --    0.86350   0.86837   0.86985   0.87252   0.87382
 Alpha virt. eigenvalues --    0.87557   0.87970   0.88058   0.88617   0.88945
 Alpha virt. eigenvalues --    0.89004   0.89428   0.89559   0.89938   0.90063
 Alpha virt. eigenvalues --    0.90233   0.90475   0.90694   0.90986   0.91256
 Alpha virt. eigenvalues --    0.91604   0.91777   0.92232   0.92677   0.92975
 Alpha virt. eigenvalues --    0.93331   0.93561   0.93766   0.93979   0.94146
 Alpha virt. eigenvalues --    0.94493   0.94985   0.95079   0.95328   0.95404
 Alpha virt. eigenvalues --    0.95842   0.96128   0.96365   0.96517   0.96658
 Alpha virt. eigenvalues --    0.97302   0.97383   0.97668   0.97893   0.98346
 Alpha virt. eigenvalues --    0.98501   0.98602   0.99094   0.99354   0.99576
 Alpha virt. eigenvalues --    0.99723   1.00636   1.00881   1.01400   1.01506
 Alpha virt. eigenvalues --    1.01866   1.02309   1.02547   1.02678   1.03016
 Alpha virt. eigenvalues --    1.03106   1.03939   1.04012   1.04394   1.04849
 Alpha virt. eigenvalues --    1.05039   1.05188   1.05430   1.05898   1.06440
 Alpha virt. eigenvalues --    1.06736   1.07158   1.07304   1.07944   1.08539
 Alpha virt. eigenvalues --    1.08784   1.09074   1.09591   1.09997   1.10248
 Alpha virt. eigenvalues --    1.10487   1.10752   1.11167   1.11502   1.11746
 Alpha virt. eigenvalues --    1.12076   1.12150   1.12529   1.12947   1.13557
 Alpha virt. eigenvalues --    1.14150   1.14471   1.14690   1.15099   1.15462
 Alpha virt. eigenvalues --    1.16041   1.16503   1.16654   1.17469   1.17729
 Alpha virt. eigenvalues --    1.18207   1.18506   1.18823   1.19215   1.19557
 Alpha virt. eigenvalues --    1.19892   1.20143   1.20235   1.20674   1.20901
 Alpha virt. eigenvalues --    1.21737   1.21994   1.22227   1.22666   1.23400
 Alpha virt. eigenvalues --    1.23845   1.24571   1.25137   1.25446   1.26131
 Alpha virt. eigenvalues --    1.26395   1.26691   1.27293   1.27375   1.27793
 Alpha virt. eigenvalues --    1.28293   1.28746   1.29262   1.29453   1.29678
 Alpha virt. eigenvalues --    1.29896   1.30375   1.30942   1.31060   1.31502
 Alpha virt. eigenvalues --    1.31965   1.32508   1.33022   1.33479   1.33857
 Alpha virt. eigenvalues --    1.34061   1.34446   1.34900   1.35207   1.35709
 Alpha virt. eigenvalues --    1.36391   1.37007   1.37281   1.37726   1.37810
 Alpha virt. eigenvalues --    1.38049   1.39256   1.39499   1.39592   1.39840
 Alpha virt. eigenvalues --    1.40230   1.40556   1.40679   1.40837   1.41020
 Alpha virt. eigenvalues --    1.41598   1.41667   1.41976   1.42467   1.42632
 Alpha virt. eigenvalues --    1.42891   1.43334   1.43648   1.44220   1.44435
 Alpha virt. eigenvalues --    1.44611   1.44713   1.45114   1.45405   1.45709
 Alpha virt. eigenvalues --    1.46164   1.46258   1.46516   1.47419   1.47860
 Alpha virt. eigenvalues --    1.48140   1.48338   1.48805   1.49092   1.49260
 Alpha virt. eigenvalues --    1.49659   1.50079   1.50437   1.50669   1.51080
 Alpha virt. eigenvalues --    1.51409   1.52140   1.53100   1.53598   1.53781
 Alpha virt. eigenvalues --    1.54593   1.54830   1.55102   1.55293   1.56507
 Alpha virt. eigenvalues --    1.57096   1.57777   1.58358   1.59173   1.59478
 Alpha virt. eigenvalues --    1.60112   1.61006   1.61314   1.62241   1.62801
 Alpha virt. eigenvalues --    1.63568   1.64119   1.64497   1.64919   1.65579
 Alpha virt. eigenvalues --    1.65892   1.67173   1.67578   1.67914   1.68555
 Alpha virt. eigenvalues --    1.69362   1.69750   1.70541   1.70899   1.71517
 Alpha virt. eigenvalues --    1.72021   1.72502   1.73464   1.73992   1.74217
 Alpha virt. eigenvalues --    1.74448   1.75297   1.75355   1.75525   1.75799
 Alpha virt. eigenvalues --    1.76056   1.76569   1.77054   1.77694   1.77845
 Alpha virt. eigenvalues --    1.78044   1.78397   1.78722   1.78909   1.79574
 Alpha virt. eigenvalues --    1.79900   1.80137   1.80294   1.80391   1.80593
 Alpha virt. eigenvalues --    1.80929   1.81238   1.81556   1.81652   1.81988
 Alpha virt. eigenvalues --    1.82447   1.82567   1.82715   1.82850   1.83014
 Alpha virt. eigenvalues --    1.83589   1.83661   1.83885   1.84108   1.84534
 Alpha virt. eigenvalues --    1.85254   1.85323   1.85587   1.85975   1.86009
 Alpha virt. eigenvalues --    1.86204   1.86820   1.86934   1.87179   1.87301
 Alpha virt. eigenvalues --    1.87645   1.87710   1.88026   1.88184   1.88788
 Alpha virt. eigenvalues --    1.88833   1.89423   1.89732   1.89898   1.90027
 Alpha virt. eigenvalues --    1.90415   1.90606   1.90851   1.91327   1.91455
 Alpha virt. eigenvalues --    1.91786   1.91943   1.92445   1.92937   1.93063
 Alpha virt. eigenvalues --    1.93463   1.93951   1.94265   1.94596   1.94668
 Alpha virt. eigenvalues --    1.94975   1.95625   1.96210   1.96487   1.96808
 Alpha virt. eigenvalues --    1.97163   1.97669   1.97721   1.98208   1.98673
 Alpha virt. eigenvalues --    1.99135   1.99496   1.99964   2.00325   2.00725
 Alpha virt. eigenvalues --    2.00945   2.00975   2.01275   2.01864   2.02530
 Alpha virt. eigenvalues --    2.02824   2.03369   2.03677   2.03976   2.04153
 Alpha virt. eigenvalues --    2.04303   2.04747   2.05040   2.05527   2.05744
 Alpha virt. eigenvalues --    2.06099   2.06140   2.06826   2.07076   2.07118
 Alpha virt. eigenvalues --    2.07353   2.07420   2.08100   2.08272   2.08485
 Alpha virt. eigenvalues --    2.08791   2.09016   2.09247   2.09572   2.09636
 Alpha virt. eigenvalues --    2.09882   2.10301   2.10691   2.11148   2.11307
 Alpha virt. eigenvalues --    2.11365   2.11588   2.11885   2.11953   2.12265
 Alpha virt. eigenvalues --    2.12594   2.12872   2.13182   2.13317   2.13735
 Alpha virt. eigenvalues --    2.14161   2.14428   2.14838   2.15004   2.15253
 Alpha virt. eigenvalues --    2.15545   2.15743   2.15991   2.16340   2.16897
 Alpha virt. eigenvalues --    2.16969   2.17083   2.17241   2.17478   2.17836
 Alpha virt. eigenvalues --    2.18209   2.18494   2.18777   2.18866   2.19485
 Alpha virt. eigenvalues --    2.19924   2.20099   2.20473   2.20638   2.20936
 Alpha virt. eigenvalues --    2.21222   2.21727   2.22189   2.22759   2.22866
 Alpha virt. eigenvalues --    2.23612   2.23701   2.24507   2.24704   2.25345
 Alpha virt. eigenvalues --    2.25374   2.25810   2.25940   2.26742   2.27058
 Alpha virt. eigenvalues --    2.27319   2.27857   2.28116   2.28405   2.28958
 Alpha virt. eigenvalues --    2.29826   2.30004   2.30113   2.30255   2.31049
 Alpha virt. eigenvalues --    2.31584   2.31926   2.32297   2.32595   2.32855
 Alpha virt. eigenvalues --    2.33222   2.34003   2.34630   2.35057   2.35326
 Alpha virt. eigenvalues --    2.35513   2.35861   2.36278   2.36524   2.36843
 Alpha virt. eigenvalues --    2.37090   2.38537   2.38872   2.39298   2.39947
 Alpha virt. eigenvalues --    2.40096   2.40388   2.40511   2.41144   2.41263
 Alpha virt. eigenvalues --    2.41667   2.41858   2.42099   2.42266   2.42286
 Alpha virt. eigenvalues --    2.42861   2.43030   2.43537   2.43906   2.44246
 Alpha virt. eigenvalues --    2.44671   2.44909   2.45589   2.46098   2.46372
 Alpha virt. eigenvalues --    2.46751   2.47095   2.47265   2.47403   2.48210
 Alpha virt. eigenvalues --    2.48504   2.48954   2.49277   2.49397   2.49709
 Alpha virt. eigenvalues --    2.49794   2.50450   2.51119   2.51641   2.52149
 Alpha virt. eigenvalues --    2.52418   2.52672   2.53120   2.53298   2.54250
 Alpha virt. eigenvalues --    2.54470   2.54897   2.55270   2.55921   2.56026
 Alpha virt. eigenvalues --    2.56525   2.56965   2.57767   2.58404   2.59075
 Alpha virt. eigenvalues --    2.59334   2.59722   2.60129   2.60323   2.60447
 Alpha virt. eigenvalues --    2.61041   2.61522   2.61820   2.61896   2.62052
 Alpha virt. eigenvalues --    2.62650   2.62803   2.63185   2.63561   2.64439
 Alpha virt. eigenvalues --    2.64737   2.64848   2.65730   2.65800   2.66071
 Alpha virt. eigenvalues --    2.66589   2.66952   2.67229   2.67584   2.67974
 Alpha virt. eigenvalues --    2.68324   2.68689   2.69026   2.69148   2.69423
 Alpha virt. eigenvalues --    2.69803   2.70477   2.70571   2.71129   2.71511
 Alpha virt. eigenvalues --    2.71905   2.72006   2.72366   2.72670   2.73320
 Alpha virt. eigenvalues --    2.73656   2.74065   2.74391   2.74767   2.74900
 Alpha virt. eigenvalues --    2.75179   2.75737   2.76068   2.76276   2.77111
 Alpha virt. eigenvalues --    2.77777   2.77899   2.78573   2.79019   2.79258
 Alpha virt. eigenvalues --    2.79852   2.80768   2.81104   2.81512   2.81830
 Alpha virt. eigenvalues --    2.82078   2.82256   2.82785   2.82901   2.83162
 Alpha virt. eigenvalues --    2.83749   2.83859   2.84097   2.84617   2.85398
 Alpha virt. eigenvalues --    2.85689   2.86530   2.86719   2.86994   2.87132
 Alpha virt. eigenvalues --    2.87606   2.87856   2.88161   2.88393   2.88894
 Alpha virt. eigenvalues --    2.89102   2.89458   2.89691   2.90121   2.90472
 Alpha virt. eigenvalues --    2.90652   2.91322   2.91412   2.92013   2.92306
 Alpha virt. eigenvalues --    2.92733   2.93741   2.94066   2.94791   2.95260
 Alpha virt. eigenvalues --    2.95493   2.95722   2.96035   2.97091   2.97793
 Alpha virt. eigenvalues --    2.99494   3.01052   3.01638   3.01825   3.02506
 Alpha virt. eigenvalues --    3.04365   3.04766   3.05636   3.07208   3.07966
 Alpha virt. eigenvalues --    3.08964   3.09280   3.09575   3.09779   3.10499
 Alpha virt. eigenvalues --    3.11129   3.12658   3.13186   3.13567   3.14142
 Alpha virt. eigenvalues --    3.15070   3.15543   3.17718   3.17848   3.18565
 Alpha virt. eigenvalues --    3.18869   3.20058   3.20846   3.20996   3.21725
 Alpha virt. eigenvalues --    3.22286   3.22400   3.22545   3.22768   3.24193
 Alpha virt. eigenvalues --    3.24422   3.24889   3.25692   3.26462   3.27253
 Alpha virt. eigenvalues --    3.27463   3.27902   3.29555   3.29801   3.30181
 Alpha virt. eigenvalues --    3.30809   3.31041   3.31480   3.32404   3.32787
 Alpha virt. eigenvalues --    3.34015   3.37622   3.38123   3.40385   3.40518
 Alpha virt. eigenvalues --    3.40663   3.42320   3.43811   3.44517   3.44651
 Alpha virt. eigenvalues --    3.45033   3.45490   3.45835   3.45997   3.46224
 Alpha virt. eigenvalues --    3.46400   3.46769   3.47343   3.47490   3.47873
 Alpha virt. eigenvalues --    3.48227   3.48813   3.49413   3.49617   3.50651
 Alpha virt. eigenvalues --    3.51518   3.52542   3.58954   3.60774   3.64797
 Alpha virt. eigenvalues --    3.68677   3.68886   3.73567   3.74063   3.74616
 Alpha virt. eigenvalues --    3.78160   3.91204   3.92451   4.01596   4.05375
 Alpha virt. eigenvalues --    4.12906   4.13489   4.17586   4.18093   4.19480
 Alpha virt. eigenvalues --    4.19860   4.20292   4.21034   4.22476   4.22740
 Alpha virt. eigenvalues --    4.23265   4.24855   4.25722   4.26187   4.26411
 Alpha virt. eigenvalues --    4.28080   4.29824   4.31301   4.35209   4.36928
 Alpha virt. eigenvalues --    4.37924   4.39327   4.39842   4.40870   4.41649
 Alpha virt. eigenvalues --    4.42245   4.43783   4.45014   4.46191   4.47344
 Alpha virt. eigenvalues --    4.48457   4.50529   4.51886   4.52566   4.54198
 Alpha virt. eigenvalues --    4.55319   4.55829   4.58457   4.59233   4.61193
 Alpha virt. eigenvalues --    4.62074   4.63364   4.64654   4.65899   4.67532
 Alpha virt. eigenvalues --    4.67882   4.73590   4.75756   4.80871   4.84035
 Alpha virt. eigenvalues --    4.86197   4.87571   4.89931   4.92115   4.96741
 Alpha virt. eigenvalues --    4.99373   5.00882   5.34458   5.49689   5.82247
          Condensed to atoms (all electrons):
 Mulliken charges:
               1
     1  O   -0.516225
     2  N   -0.560298
     3  O   -0.624034
     4  O   -0.583981
     5  C   -0.311672
     6  N    0.392493
     7  C    0.180863
     8  C    0.648446
     9  C    0.038392
    10  C   -0.206793
    11  C    0.625729
    12  C   -0.170101
    13  C   -0.110148
    14  C   -0.146385
    15  C    0.373253
    16  O   -0.398685
    17  O   -0.367688
    18  H    0.357636
    19  H    0.371116
    20  H    0.451655
    21  H    0.140100
    22  H    0.148303
    23  H    0.123797
    24  H    0.166203
    25  H    0.170587
    26  O   -0.638605
    27  O   -0.623625
    28  C   -0.402819
    29  O   -0.626010
    30  C   -0.394856
    31  C   -0.407789
    32  O   -0.663398
    33  C   -0.395748
    34  C   -0.413401
    35  C   -0.381100
    36  C   -0.195072
    37  C    0.131499
    38  C   -0.145788
    39  C   -0.183595
    40  C    0.081988
    41  C    0.140835
    42  C   -0.039231
    43  C    0.215996
    44  C   -0.148678
    45  C    0.080399
    46  C   -0.211293
    47  C    0.105990
    48  C    0.027830
    49  C   -0.157052
    50  C   -0.006213
    51  C    0.216723
    52  C   -0.265596
    53  C    0.003900
    54  C   -0.146840
    55  C   -0.055356
    56  C    0.024175
    57  C   -0.202118
    58  C   -0.144563
    59  C    0.105137
    60  C   -0.203088
    61  C    0.100843
    62  C    0.099967
    63  C   -0.208228
    64  C   -0.266364
    65  P    1.312728
    66  H    0.395146
    67  H    0.140714
    68  H    0.146147
    69  H    0.105421
    70  H    0.123780
    71  H    0.127120
    72  H    0.158185
    73  H    0.128858
    74  H    0.136082
    75  H    0.137336
    76  H    0.116575
    77  H    0.127416
    78  H    0.163724
    79  H    0.157900
    80  H    0.120722
    81  H    0.135566
    82  H    0.141280
    83  H    0.120293
    84  H    0.100798
    85  H    0.084507
    86  H    0.122861
    87  H    0.102346
    88  H    0.137231
    89  H    0.116432
    90  H    0.126288
    91  H    0.137069
    92  H    0.134694
    93  H    0.120672
    94  H    0.099207
    95  H    0.127468
    96  H    0.096580
    97  H    0.116546
    98  H    0.131662
    99  H    0.140182
   100  H    0.133992
   101  H    0.185051
   102  O   -0.533970
   103  C   -0.037088
   104  H    0.185566
   105  H    0.164477
   106  C    0.518032
   107  C    0.813625
   108  F   -0.282199
   109  F   -0.277127
   110  F   -0.238951
   111  F   -0.262775
   112  F   -0.259590
 Sum of Mulliken charges =  -0.00000
 Mulliken charges with hydrogens summed into heavy atoms:
               1
     1  O   -0.158589
     2  N   -0.189182
     3  O   -0.624034
     4  O   -0.132326
     5  C    0.100527
     6  N    0.392493
     7  C    0.180863
     8  C    0.648446
     9  C    0.038392
    10  C   -0.206793
    11  C    0.625729
    12  C   -0.003897
    13  C    0.074903
    14  C    0.024201
    15  C    0.373253
    16  O   -0.398685
    17  O   -0.367688
    26  O   -0.243459
    27  O   -0.623625
    28  C   -0.010537
    29  O   -0.626010
    30  C    0.014229
    31  C   -0.005513
    32  O   -0.663398
    33  C    0.011968
    34  C    0.000788
    35  C   -0.018729
    36  C   -0.110564
    37  C    0.131499
    38  C   -0.022927
    39  C   -0.081249
    40  C    0.081988
    41  C    0.140835
    42  C   -0.039231
    43  C    0.215996
    44  C   -0.148678
    45  C    0.080399
    46  C    0.042370
    47  C    0.105990
    48  C    0.027830
    49  C   -0.030763
    50  C   -0.006213
    51  C    0.216723
    52  C    0.006167
    53  C    0.003900
    54  C   -0.026167
    55  C   -0.055356
    56  C    0.024175
    57  C   -0.102911
    58  C   -0.017095
    59  C    0.105137
    60  C   -0.106508
    61  C    0.100843
    62  C    0.099967
    63  C    0.039980
    64  C    0.007810
    65  P    1.312728
   102  O   -0.533970
   103  C    0.312955
   106  C    0.518032
   107  C    0.813625
   108  F   -0.282199
   109  F   -0.277127
   110  F   -0.238951
   111  F   -0.262775
   112  F   -0.259590
 APT charges:
               1
     1  O   -1.087442
     2  N   -0.210066
     3  O    0.009070
     4  O    0.151121
     5  C   -1.253682
     6  N   -0.713257
     7  C    0.450773
     8  C   -0.036691
     9  C   -0.450946
    10  C   -0.593977
    11  C   -0.025657
    12  C   -0.541429
    13  C   -0.348898
    14  C   -0.435113
    15  C   -0.214689
    16  O    0.431293
    17  O   -0.017448
    18  H    1.403484
    19  H   -0.010266
    20  H    0.406560
    21  H   -0.024399
    22  H    0.630906
    23  H    0.645677
    24  H   -0.140607
    25  H    0.897879
    26  O   -0.280644
    27  O   -0.258729
    28  C   -1.528499
    29  O   -0.342351
    30  C   -1.234192
    31  C   -1.589561
    32  O   -0.798617
    33  C   -1.158906
    34  C   -1.010320
    35  C   -1.048931
    36  C   -0.464280
    37  C    0.014088
    38  C   -0.487623
    39  C   -0.449776
    40  C    0.329331
    41  C   -0.449529
    42  C   -0.466321
    43  C   -0.233780
    44  C   -0.056554
    45  C   -0.096084
    46  C   -0.896888
    47  C   -0.276189
    48  C    0.305804
    49  C   -0.489312
    50  C   -0.474374
    51  C   -0.529473
    52  C   -1.744743
    53  C   -0.368138
    54  C   -0.404036
    55  C   -0.526385
    56  C    0.379318
    57  C   -0.502377
    58  C   -0.416657
    59  C   -0.359973
    60  C   -0.436891
    61  C   -0.084912
    62  C    0.395151
    63  C   -0.761031
    64  C   -1.454503
    65  P    0.617157
    66  H    0.347538
    67  H    0.395537
    68  H    0.939452
    69  H    0.280863
    70  H    0.868636
    71  H    0.355612
    72  H    0.095071
    73  H    0.576600
    74  H    1.045080
    75  H    0.072204
    76  H    0.585022
    77  H    0.850587
    78  H   -0.190756
    79  H   -0.203979
    80  H    0.674728
    81  H    0.607599
    82  H    0.757135
    83  H    0.003553
    84  H    0.332959
    85  H    0.479613
    86  H    0.926770
    87  H    0.712422
    88  H    0.155013
    89  H    0.736977
    90  H    0.660157
    91  H    0.872330
    92  H    0.773773
    93  H    1.251543
    94  H    0.538343
    95  H    0.928610
    96  H    0.770200
    97  H    0.889459
    98  H   -0.039942
    99  H    0.472679
   100  H    0.920310
   101  H    1.299992
   102  O   -0.354893
   103  C    0.010436
   104  H   -0.057280
   105  H    0.310881
   106  C   -0.093882
   107  C    0.068912
   108  F    0.224333
   109  F   -0.005945
   110  F   -0.409452
   111  F   -0.140418
   112  F    0.423150
 Sum of APT charges =  -0.00000
 APT charges with hydrogens summed into heavy atoms:
               1
     1  O    0.316042
     2  N   -0.220332
     3  O    0.009070
     4  O    0.557681
     5  C   -0.001498
     6  N   -0.713257
     7  C    0.450773
     8  C   -0.036691
     9  C   -0.450946
    10  C   -0.593977
    11  C   -0.025657
    12  C   -0.682035
    13  C    0.951093
    14  C    0.462765
    15  C   -0.214689
    16  O    0.431293
    17  O   -0.017448
    26  O    0.066894
    27  O   -0.258729
    28  C    0.087354
    29  O   -0.342351
    30  C    0.085126
    31  C    0.104323
    32  O   -0.798617
    33  C    0.085948
    34  C    0.068028
    35  C    0.044716
    36  C    0.015334
    37  C    0.014088
    38  C    0.439148
    39  C    0.262646
    40  C    0.329331
    41  C   -0.449529
    42  C   -0.466321
    43  C   -0.233780
    44  C   -0.056554
    45  C   -0.096084
[...]
 Alpha virt. eigenvalues --    1.31529   1.32460   1.32670   1.33089   1.33560
 Alpha virt. eigenvalues --    1.33640   1.33851   1.34677   1.35130   1.35436
 Alpha virt. eigenvalues --    1.36198   1.36874   1.37100   1.37338   1.37982
 Alpha virt. eigenvalues --    1.38252   1.38826   1.39108   1.39440   1.39516
 Alpha virt. eigenvalues --    1.39876   1.40429   1.40680   1.40814   1.41070
 Alpha virt. eigenvalues --    1.41409   1.41843   1.42103   1.42189   1.42835
 Alpha virt. eigenvalues --    1.42912   1.43014   1.43410   1.43828   1.44082
 Alpha virt. eigenvalues --    1.44391   1.44959   1.45162   1.45315   1.45428
 Alpha virt. eigenvalues --    1.45805   1.46081   1.46091   1.46350   1.47295
 Alpha virt. eigenvalues --    1.47871   1.48008   1.48412   1.48603   1.49084
 Alpha virt. eigenvalues --    1.49266   1.49763   1.50291   1.50560   1.50728
 Alpha virt. eigenvalues --    1.51632   1.51836   1.52630   1.52900   1.53519
 Alpha virt. eigenvalues --    1.53864   1.54693   1.54853   1.55396   1.56268
 Alpha virt. eigenvalues --    1.56488   1.56811   1.58497   1.59049   1.59846
 Alpha virt. eigenvalues --    1.59972   1.60549   1.61632   1.62506   1.63101
 Alpha virt. eigenvalues --    1.63422   1.63655   1.64292   1.64456   1.65086
 Alpha virt. eigenvalues --    1.65354   1.67013   1.67216   1.67864   1.68370
 Alpha virt. eigenvalues --    1.69078   1.69890   1.70353   1.70716   1.71187
 Alpha virt. eigenvalues --    1.71886   1.72233   1.73415   1.73891   1.74283
 Alpha virt. eigenvalues --    1.74550   1.74942   1.75267   1.75373   1.75698
 Alpha virt. eigenvalues --    1.76001   1.76242   1.76904   1.77200   1.77468
 Alpha virt. eigenvalues --    1.77501   1.77896   1.78191   1.78762   1.78979
 Alpha virt. eigenvalues --    1.79283   1.79682   1.79832   1.80028   1.80441
 Alpha virt. eigenvalues --    1.80646   1.80694   1.80864   1.81360   1.81945
 Alpha virt. eigenvalues --    1.82127   1.82197   1.82474   1.82832   1.83128
 Alpha virt. eigenvalues --    1.83433   1.83716   1.83858   1.84414   1.84556
 Alpha virt. eigenvalues --    1.84921   1.84939   1.85541   1.85654   1.85983
 Alpha virt. eigenvalues --    1.86070   1.86405   1.86764   1.86807   1.87379
 Alpha virt. eigenvalues --    1.87678   1.87785   1.87992   1.88253   1.88548
 Alpha virt. eigenvalues --    1.88683   1.89316   1.89557   1.89812   1.89872
 Alpha virt. eigenvalues --    1.89935   1.90422   1.91017   1.91088   1.91413
 Alpha virt. eigenvalues --    1.91731   1.92335   1.92657   1.93038   1.93261
 Alpha virt. eigenvalues --    1.93709   1.93762   1.93841   1.94111   1.94946
 Alpha virt. eigenvalues --    1.95091   1.95523   1.96431   1.96499   1.96815
 Alpha virt. eigenvalues --    1.97395   1.97553   1.98126   1.98488   1.98882
 Alpha virt. eigenvalues --    1.99368   1.99565   1.99696   2.00304   2.00539
 Alpha virt. eigenvalues --    2.01038   2.01111   2.01643   2.01813   2.02021
 Alpha virt. eigenvalues --    2.02905   2.03297   2.03484   2.03716   2.03901
 Alpha virt. eigenvalues --    2.04030   2.04634   2.05002   2.05386   2.05696
 Alpha virt. eigenvalues --    2.06221   2.06334   2.06771   2.06918   2.07185
 Alpha virt. eigenvalues --    2.07431   2.07612   2.07801   2.08194   2.08513
 Alpha virt. eigenvalues --    2.08685   2.08878   2.09364   2.09472   2.09772
 Alpha virt. eigenvalues --    2.10089   2.10537   2.10884   2.10963   2.11296
 Alpha virt. eigenvalues --    2.11416   2.11633   2.11970   2.12118   2.12412
 Alpha virt. eigenvalues --    2.12630   2.12779   2.13175   2.13622   2.13964
 Alpha virt. eigenvalues --    2.14181   2.14495   2.14769   2.14855   2.15130
 Alpha virt. eigenvalues --    2.15329   2.15573   2.16069   2.16385   2.16572
 Alpha virt. eigenvalues --    2.16935   2.17074   2.17256   2.17580   2.17742
 Alpha virt. eigenvalues --    2.18014   2.18230   2.18457   2.18673   2.19354
 Alpha virt. eigenvalues --    2.19925   2.20142   2.20400   2.20916   2.21039
 Alpha virt. eigenvalues --    2.21285   2.21885   2.22314   2.22715   2.23090
 Alpha virt. eigenvalues --    2.23596   2.23935   2.24724   2.24907   2.25049
 Alpha virt. eigenvalues --    2.25329   2.25812   2.26051   2.26530   2.27088
 Alpha virt. eigenvalues --    2.27172   2.27552   2.27778   2.28441   2.28808
 Alpha virt. eigenvalues --    2.29364   2.29476   2.29874   2.31011   2.31136
 Alpha virt. eigenvalues --    2.31351   2.31828   2.32089   2.32409   2.33168
 Alpha virt. eigenvalues --    2.33689   2.34053   2.34864   2.35147   2.35284
 Alpha virt. eigenvalues --    2.35895   2.36172   2.36337   2.36593   2.37339
 Alpha virt. eigenvalues --    2.37818   2.39092   2.39366   2.39464   2.39843
 Alpha virt. eigenvalues --    2.40001   2.40315   2.40418   2.41197   2.41209
 Alpha virt. eigenvalues --    2.41556   2.41732   2.41795   2.42007   2.42403
 Alpha virt. eigenvalues --    2.42528   2.42699   2.43355   2.43850   2.44297
 Alpha virt. eigenvalues --    2.44652   2.44818   2.44990   2.45784   2.46159
 Alpha virt. eigenvalues --    2.46788   2.47137   2.47393   2.47690   2.47854
 Alpha virt. eigenvalues --    2.48368   2.48728   2.49126   2.49771   2.49925
 Alpha virt. eigenvalues --    2.49973   2.50862   2.51442   2.51642   2.52125
 Alpha virt. eigenvalues --    2.52656   2.52893   2.54051   2.54426   2.54786
 Alpha virt. eigenvalues --    2.55019   2.55299   2.55434   2.56212   2.56370
 Alpha virt. eigenvalues --    2.56832   2.57734   2.58501   2.58897   2.59234
 Alpha virt. eigenvalues --    2.59684   2.60271   2.60529   2.60917   2.60957
 Alpha virt. eigenvalues --    2.61107   2.61401   2.61774   2.62036   2.62121
 Alpha virt. eigenvalues --    2.62266   2.62998   2.64168   2.64533   2.64665
 Alpha virt. eigenvalues --    2.64763   2.65287   2.65543   2.65719   2.66552
 Alpha virt. eigenvalues --    2.66881   2.67176   2.67707   2.67746   2.68276
 Alpha virt. eigenvalues --    2.68630   2.68911   2.69125   2.69203   2.69401
 Alpha virt. eigenvalues --    2.69621   2.70306   2.70724   2.70917   2.71334
 Alpha virt. eigenvalues --    2.71582   2.71962   2.72562   2.72868   2.73311
 Alpha virt. eigenvalues --    2.73554   2.74114   2.74342   2.74868   2.75244
 Alpha virt. eigenvalues --    2.75759   2.75903   2.76041   2.76192   2.77383
 Alpha virt. eigenvalues --    2.77438   2.78341   2.78766   2.78935   2.79049
 Alpha virt. eigenvalues --    2.79884   2.80348   2.80925   2.81435   2.81524
 Alpha virt. eigenvalues --    2.81660   2.82058   2.82392   2.82959   2.83084
 Alpha virt. eigenvalues --    2.83575   2.83733   2.84338   2.84404   2.85102
 Alpha virt. eigenvalues --    2.85583   2.85821   2.86229   2.86694   2.87134
 Alpha virt. eigenvalues --    2.87484   2.87779   2.87936   2.88193   2.88658
 Alpha virt. eigenvalues --    2.89095   2.89493   2.89720   2.90070   2.90327
 Alpha virt. eigenvalues --    2.90677   2.90942   2.91499   2.91970   2.92459
 Alpha virt. eigenvalues --    2.92954   2.93483   2.94208   2.94538   2.94873
 Alpha virt. eigenvalues --    2.95439   2.96171   2.96768   2.97146   2.98863
 Alpha virt. eigenvalues --    3.00453   3.00959   3.01315   3.01795   3.02424
 Alpha virt. eigenvalues --    3.03881   3.04422   3.05846   3.06796   3.08483
 Alpha virt. eigenvalues --    3.08853   3.08997   3.09249   3.09844   3.10700
 Alpha virt. eigenvalues --    3.11569   3.12476   3.13067   3.13190   3.14059
 Alpha virt. eigenvalues --    3.15048   3.16496   3.17201   3.17748   3.18668
 Alpha virt. eigenvalues --    3.19631   3.20026   3.20701   3.21163   3.21788
 Alpha virt. eigenvalues --    3.21848   3.22211   3.22764   3.23806   3.24199
 Alpha virt. eigenvalues --    3.24745   3.25298   3.25349   3.26264   3.26910
 Alpha virt. eigenvalues --    3.27532   3.29038   3.29460   3.29976   3.30265
 Alpha virt. eigenvalues --    3.30489   3.30737   3.31644   3.32015   3.32366
 Alpha virt. eigenvalues --    3.33482   3.37074   3.40005   3.40529   3.40666
 Alpha virt. eigenvalues --    3.41366   3.42232   3.44073   3.44271   3.44409
 Alpha virt. eigenvalues --    3.44792   3.45449   3.45645   3.45751   3.45896
 Alpha virt. eigenvalues --    3.46395   3.46686   3.47202   3.47430   3.47619
 Alpha virt. eigenvalues --    3.48100   3.48729   3.49088   3.50736   3.50961
 Alpha virt. eigenvalues --    3.52277   3.52785   3.59411   3.60750   3.63486
 Alpha virt. eigenvalues --    3.68238   3.68700   3.73573   3.74162   3.74429
 Alpha virt. eigenvalues --    3.79234   3.92007   3.93124   4.02653   4.03313
 Alpha virt. eigenvalues --    4.10793   4.13530   4.16916   4.18860   4.19066
 Alpha virt. eigenvalues --    4.19638   4.20253   4.21109   4.22142   4.22718
 Alpha virt. eigenvalues --    4.22836   4.24416   4.25348   4.25917   4.27439
 Alpha virt. eigenvalues --    4.28442   4.29280   4.30968   4.34607   4.36226
 Alpha virt. eigenvalues --    4.38339   4.39053   4.39528   4.40985   4.41608
 Alpha virt. eigenvalues --    4.42543   4.43573   4.44922   4.45685   4.47466
 Alpha virt. eigenvalues --    4.48179   4.49020   4.51172   4.51945   4.53996
 Alpha virt. eigenvalues --    4.54844   4.55711   4.58190   4.59093   4.59869
 Alpha virt. eigenvalues --    4.61528   4.62921   4.64461   4.65595   4.67461
 Alpha virt. eigenvalues --    4.69265   4.72730   4.75160   4.78952   4.83298
 Alpha virt. eigenvalues --    4.85563   4.87036   4.89589   4.92643   4.95981
 Alpha virt. eigenvalues --    4.98557   5.01026   5.34285   5.49494   5.82339
          Condensed to atoms (all electrons):
 Mulliken charges:
               1
     1  O   -0.538251
     2  N   -0.604602
     3  O   -0.605136
     4  O   -0.618623
     5  C   -0.320884
     6  N    0.390513
     7  C    0.177788
     8  C    0.602614
     9  C    0.027779
    10  C   -0.101151
    11  C    0.629924
    12  C   -0.171718
    13  C   -0.110093
    14  C   -0.150285
    15  C    0.368826
    16  O   -0.402095
    17  O   -0.372605
    18  H    0.358822
    19  H    0.352660
    20  H    0.433218
    21  H    0.132637
    22  H    0.140789
    23  H    0.139544
    24  H    0.156082
    25  H    0.168575
    26  O   -0.603412
    27  O   -0.616205
    28  C   -0.400079
    29  O   -0.615255
    30  C   -0.394092
    31  C   -0.408330
    32  O   -0.630302
    33  C   -0.396412
    34  C   -0.413854
    35  C   -0.381866
    36  C   -0.190334
    37  C    0.133213
    38  C   -0.143489
    39  C   -0.183392
    40  C    0.085394
    41  C    0.141762
    42  C   -0.043452
    43  C    0.201787
    44  C   -0.148245
    45  C    0.076706
    46  C   -0.211474
    47  C    0.105423
    48  C    0.027840
    49  C   -0.156607
    50  C   -0.003340
    51  C    0.205398
    52  C   -0.266115
    53  C    0.009777
    54  C   -0.144835
    55  C   -0.059127
    56  C    0.023402
    57  C   -0.200581
    58  C   -0.145075
    59  C    0.105697
    60  C   -0.200811
    61  C    0.096878
    62  C    0.100511
    63  C   -0.208483
    64  C   -0.266634
    65  P    1.320759
    66  H    0.386073
    67  H    0.134505
    68  H    0.144204
    69  H    0.116101
    70  H    0.127159
    71  H    0.126660
    72  H    0.151080
    73  H    0.129998
    74  H    0.136907
    75  H    0.140958
    76  H    0.121580
    77  H    0.130484
    78  H    0.155999
    79  H    0.156755
    80  H    0.123840
    81  H    0.135766
    82  H    0.140929
    83  H    0.116646
    84  H    0.107586
    85  H    0.089927
    86  H    0.126052
    87  H    0.103343
    88  H    0.137758
    89  H    0.118806
    90  H    0.130059
    91  H    0.139161
    92  H    0.136866
    93  H    0.123862
    94  H    0.102129
    95  H    0.130534
    96  H    0.099825
    97  H    0.118321
    98  H    0.132645
    99  H    0.142705
   100  H    0.135632
   101  H    0.180549
   102  O   -0.536035
   103  C   -0.029641
   104  H    0.178835
   105  H    0.161787
   106  C    0.518481
   107  C    0.811759
   108  F   -0.281775
   109  F   -0.277167
   110  F   -0.242134
   111  F   -0.263255
   112  F   -0.259328
 Sum of Mulliken charges =  -0.00000
 Mulliken charges with hydrogens summed into heavy atoms:
               1
     1  O   -0.179430
     2  N   -0.251942
     3  O   -0.171918
     4  O   -0.618623
     5  C    0.092086
     6  N    0.390513
     7  C    0.177788
     8  C    0.602614
     9  C    0.027779
    10  C   -0.101151
    11  C    0.629924
    12  C   -0.015636
    13  C    0.070456
    14  C    0.018290
    15  C    0.368826
    16  O   -0.402095
    17  O   -0.372605
    26  O   -0.217340
    27  O   -0.616205
    28  C   -0.005269
    29  O   -0.615255
    30  C    0.010807
    31  C   -0.000467
    32  O   -0.630302
    33  C    0.011652
    34  C    0.002507
    35  C   -0.016705
    36  C   -0.100408
    37  C    0.133213
    38  C   -0.017437
    39  C   -0.080049
    40  C    0.085394
    41  C    0.141762
    42  C   -0.043452
    43  C    0.201787
    44  C   -0.148245
    45  C    0.076706
    46  C    0.045090
    47  C    0.105423
    48  C    0.027840
    49  C   -0.026548
    50  C   -0.003340
    51  C    0.205398
    52  C    0.009912
    53  C    0.009777
    54  C   -0.020974
    55  C   -0.059127
    56  C    0.023402
    57  C   -0.098452
    58  C   -0.014541
    59  C    0.105697
    60  C   -0.100986
    61  C    0.096878
    62  C    0.100511
    63  C    0.042484
    64  C    0.011703
    65  P    1.320759
   102  O   -0.536035
   103  C    0.310980
   106  C    0.518481
   107  C    0.811759
   108  F   -0.281775
   109  F   -0.277167
   110  F   -0.242134
   111  F   -0.263255
   112  F   -0.259328
 APT charges:
               1
     1  O   -1.164061
     2  N   -0.163018
     3  O   -0.056203
     4  O    0.335539
     5  C   -1.223011
     6  N   -0.708347
     7  C    0.452886
     8  C    0.307658
     9  C   -0.443965
    10  C   -0.695388
    11  C   -0.368443
    12  C   -0.540337
    13  C   -0.339016
    14  C   -0.420353
    15  C   -0.238817
    16  O    0.424676
    17  O   -0.022788
    18  H    1.415748
    19  H   -0.043892
    20  H    0.307455
    21  H   -0.030824
    22  H    0.629525
    23  H    0.658161
    24  H   -0.146324
    25  H    0.883757
    26  O   -0.396740
    27  O   -0.238505
    28  C   -1.525460
    29  O   -0.316787
    30  C   -1.250688
    31  C   -1.591754
    32  O   -0.775867
    33  C   -1.183736
    34  C   -1.016357
    35  C   -1.052654
    36  C   -0.463565
    37  C    0.016435
    38  C   -0.484351
    39  C   -0.452456
    40  C    0.327738
    41  C   -0.442906
    42  C   -0.462250
    43  C   -0.239554
    44  C   -0.060521
    45  C   -0.089836
    46  C   -0.902743
    47  C   -0.277652
    48  C    0.301360
    49  C   -0.493710
    50  C   -0.483473
    51  C   -0.546795
    52  C   -1.751612
    53  C   -0.369601
    54  C   -0.413086
    55  C   -0.519005
    56  C    0.380020
    57  C   -0.503494
    58  C   -0.413381
    59  C   -0.361981
    60  C   -0.446465
    61  C   -0.080807
    62  C    0.392825
    63  C   -0.765970
    64  C   -1.458018
    65  P    0.642255
    66  H    0.486238
    67  H    0.404902
    68  H    0.933521
    69  H    0.278664
    70  H    0.876588
    71  H    0.354299
    72  H    0.099814
    73  H    0.579473
    74  H    1.047961
    75  H    0.072904
    76  H    0.579711
    77  H    0.866845
    78  H   -0.182409
    79  H   -0.202968
    80  H    0.681321
    81  H    0.607338
    82  H    0.757580
    83  H    0.005134
    84  H    0.335786
    85  H    0.483733
    86  H    0.931778
    87  H    0.714754
    88  H    0.157022
    89  H    0.741784
    90  H    0.664606
    91  H    0.877112
    92  H    0.778262
    93  H    1.258912
    94  H    0.541743
    95  H    0.936359
    96  H    0.775307
    97  H    0.893854
    98  H   -0.038667
    99  H    0.475023
   100  H    0.924330
   101  H    1.291682
   102  O   -0.354548
   103  C    0.012789
   104  H   -0.058351
   105  H    0.307011
   106  C   -0.093617
   107  C    0.066867
   108  F    0.225246
   109  F   -0.006632
   110  F   -0.409515
   111  F   -0.142088
   112  F    0.423074
 Sum of APT charges =  -0.00000
 APT charges with hydrogens summed into heavy atoms:
               1
     1  O    0.251687
     2  N   -0.206910
     3  O    0.251252
     4  O    0.335539
     5  C    0.033851
     6  N   -0.708347
     7  C    0.452886
     8  C    0.307658
     9  C   -0.443965
    10  C   -0.695388
    11  C   -0.368443
    12  C   -0.686661
    13  C    0.952667
    14  C    0.463403
    15  C   -0.238817
    16  O    0.424676
    17  O   -0.022788
    26  O    0.089498
    27  O   -0.238505
    28  C    0.091627
    29  O   -0.316787
    30  C    0.080013
    31  C    0.108583
    32  O   -0.775867
    33  C    0.080410
    34  C    0.069334
    35  C    0.045846
    36  C    0.020168
    37  C    0.016435
    38  C    0.447427
    39  C    0.262298
    40  C    0.327738
    41  C   -0.442906
    42  C   -0.462250
    43  C   -0.239554
    44  C   -0.060521
    45  C   -0.089836
    46  C   -0.003936
    47  C   -0.277652
    48  C    0.301360
    49  C    0.170897
    50  C   -0.483473
    51  C   -0.546795
    52  C   -0.096238
    53  C   -0.369601
    54  C    0.845826
    55  C   -0.519005
    56  C    0.380020
    57  C    0.038249
    58  C    0.522978
    59  C   -0.361981
    60  C    0.328841
    61  C   -0.080807
    62  C    0.392825
    63  C    0.089217
    64  C   -0.058665
    65  P    0.642255
   102  O   -0.354548
   103  C    0.261449
   106  C   -0.093617
   107  C    0.066867
   108  F    0.225246
   109  F   -0.006632
   110  F   -0.409515
   111  F   -0.142088
   112  F    0.423074
 Electronic spatial extent (au):  <R**2>=          39944.8622
 Charge=              0.0000 electrons
 Dipole moment (field-independent basis, Debye):
    X=              7.0516    Y=              2.6098    Z=             -2.7287  Tot=              7.9989
 Quadrupole moment (field-independent basis, Debye-Ang):
   XX=           -395.7148   YY=           -364.2891   ZZ=           -383.6968
   XY=            -23.1016   XZ=              7.6646   YZ=              9.0710
 Traceless Quadrupole moment (field-independent basis, Debye-Ang):
   XX=            -14.4812   YY=             16.9445   ZZ=             -2.4633
   XY=            -23.1016   XZ=              7.6646   YZ=              9.0710
 Octapole moment (field-independent basis, Debye-Ang**2):
  XXX=            205.6434  YYY=            -71.3958  ZZZ=             94.8919  XYY=             53.2804
  XXY=             34.7137  XXZ=            -99.3155  XZZ=              5.3053  YZZ=             29.1269
  YYZ=            -44.1142  XYZ=            -34.1760
 Hexadecapole moment (field-independent basis, Debye-Ang**3):
 XXXX=         -25518.5011 YYYY=         -15296.2117 ZZZZ=         -11030.8570 XXXY=           -907.9982
 XXXZ=            153.8405 YYYX=            146.3323 YYYZ=           -471.8671 ZZZX=            -61.8255
 ZZZY=           -450.3538 XXYY=          -7040.1499 XXZZ=          -6327.7860 YYZZ=          -4364.0432
 XXYZ=            165.0298 YYXZ=             33.3378 ZZXY=           -107.6238
 N-N= 1.229408985341D+04 E-N=-3.291171882354D+04  KE= 3.531008741049D+03
  Exact polarizability:       0.000       0.000       0.000       0.000       0.000       0.000
 Approx polarizability:     743.992     -17.617     752.027     -14.946     -61.734     606.640
 Leave Link  601 at Sat Nov 12 08:41:38 2022, MaxMem=  8053063680 cpu:               6.9 elap:               0.6
 (Enter /project/chenjingdan/g16/l9999.exe)

 This type of calculation cannot be archived.


 THOSE WHO TRY TO PASS CHEMISTRY OFF AS A NEW SCIENCE
 SHOW HOW LITTLE KNOWLEDGE THEY HAVE OF THE CHARACTER
 AND LITERATURE OF THE ANCIENTS.
   -- NICOLAS LEFEVRE
 "COURS DE CHYMIE" J.-N.LELOUP, PARIS, 1751
 Job cpu time:       6 days 16 hours 53 minutes 18.1 seconds.
 Elapsed time:       0 days 10 hours  6 minutes 24.4 seconds.
 File lengths (MBytes):  RWF=  16951 Int=      0 D2E=      0 Chk=    123 Scr=      1
 Normal termination of Gaussian 16 at Sat Nov 12 08:41:40 2022.
