 Entering Gaussian System, Link 0=g16
 Initial command:
 /project/chenjingdan/g16/l1.exe "/scratch/chenjingdan/scratch/Gau-26261.inp" -scrdir="/scratch/chenjingdan/scratch/"
 Entering Link 1 = /project/chenjingdan/g16/l1.exe PID=     26262.
  
 Copyright (c) 1988-2019, Gaussian, Inc.  All Rights Reserved.
  
 This is part of the Gaussian(R) 16 program.  It is based on
 the Gaussian(R) 09 system (copyright 2009, Gaussian, Inc.),
 the Gaussian(R) 03 system (copyright 2003, Gaussian, Inc.),
 the Gaussian(R) 98 system (copyright 1998, Gaussian, Inc.),
 the Gaussian(R) 94 system (copyright 1995, Gaussian, Inc.),
 the Gaussian 92(TM) system (copyright 1992, Gaussian, Inc.),
 the Gaussian 90(TM) system (copyright 1990, Gaussian, Inc.),
 the Gaussian 88(TM) system (copyright 1988, Gaussian, Inc.),
 the Gaussian 86(TM) system (copyright 1986, Carnegie Mellon
 University), and the Gaussian 82(TM) system (copyright 1983,
 Carnegie Mellon University). Gaussian is a federally registered
 trademark of Gaussian, Inc.
  
 This software contains proprietary and confidential information,
 including trade secrets, belonging to Gaussian, Inc.
  
 This software is provided under written license and may be
 used, copied, transmitted, or stored only in accord with that
 written license.
  
 The following legend is applicable only to US Government
 contracts under FAR:
  
                    RESTRICTED RIGHTS LEGEND
  
 Use, reproduction and disclosure by the US Government is
 subject to restrictions as set forth in subparagraphs (a)
 and (c) of the Commercial Computer Software - Restricted
 Rights clause in FAR 52.227-19.
  
 Gaussian, Inc.
 340 Quinnipiac St., Bldg. 40, Wallingford CT 06492
  
  
 ---------------------------------------------------------------
 Warning -- This program may not be used in any manner that
 competes with the business of Gaussian, Inc. or will provide
 assistance to any competitor of Gaussian, Inc.  The licensee
 of this program is prohibited from giving any competitor of
 Gaussian, Inc. access to this program.  By using this program,
 the user acknowledges that Gaussian, Inc. is engaged in the
 business of creating and licensing software in the field of
 computational chemistry and represents and warrants to the
 licensee that it is not a competitor of Gaussian, Inc. and that
 it will not use this program in any manner prohibited above.
 ---------------------------------------------------------------
  

 Cite this work as:
 Gaussian 16, Revision C.01,
 M. J. Frisch, G. W. Trucks, H. B. Schlegel, G. E. Scuseria, 
 M. A. Robb, J. R. Cheeseman, G. Scalmani, V. Barone, 
 G. A. Petersson, H. Nakatsuji, X. Li, M. Caricato, A. V. Marenich, 
 J. Bloino, B. G. Janesko, R. Gomperts, B. Mennucci, H. P. Hratchian, 
 J. V. Ortiz, A. F. Izmaylov, J. L. Sonnenberg, D. Williams-Young, 
 F. Ding, F. Lipparini, F. Egidi, J. Goings, B. Peng, A. Petrone, 
 T. Henderson, D. Ranasinghe, V. G. Zakrzewski, J. Gao, N. Rega, 
 G. Zheng, W. Liang, M. Hada, M. Ehara, K. Toyota, R. Fukuda, 
 J. Hasegawa, M. Ishida, T. Nakajima, Y. Honda, O. Kitao, H. Nakai, 
 T. Vreven, K. Throssell, J. A. Montgomery, Jr., J. E. Peralta, 
 F. Ogliaro, M. J. Bearpark, J. J. Heyd, E. N. Brothers, K. N. Kudin, 
 V. N. Staroverov, T. A. Keith, R. Kobayashi, J. Normand, 
 K. Raghavachari, A. P. Rendell, J. C. Burant, S. S. Iyengar, 
 J. Tomasi, M. Cossi, J. M. Millam, M. Klene, C. Adamo, R. Cammi, 
 J. W. Ochterski, R. L. Martin, K. Morokuma, O. Farkas, 
 J. B. Foresman, and D. J. Fox, Gaussian, Inc., Wallingford CT, 2019.
 
 ******************************************
 Gaussian 16:  ES64L-G16RevC.01  3-Jul-2019
                12-Nov-2022 
 ******************************************
 %nprocshared=16
 Will use up to   16 processors via shared memory.
 %mem=60GB
 %chk=N2_ts2_invR_t1_try2_opts_irc_lqa_mix.chk
 ------------------------------------------------------------
 #p irc=(calcfc,maxpoints=30,lqa,stepsize=8) 6-31g(d,p) m062x
 ------------------------------------------------------------
 1/10=4,18=10,26=3,38=1,39=8,42=30,44=3,45=2,172=1/1,23;
 2/12=2,17=6,18=5,29=1,40=1/2;
 3/5=1,6=6,7=101,11=2,25=1,30=1,71=2,74=-55,140=1/1,2,3;
 4//1;
 5/5=2,38=5/2;
 8/6=4,10=90,11=11/1;
 11/6=1,8=1,9=11,15=111,16=1/1,2,10;
 10/6=1,13=1/2;
 6/7=2,8=2,9=2,10=2,28=1/1;
 7/10=1,25=1/1,2,3,16;
 1/10=4,18=10,26=3,39=8,42=30,44=3,45=2/23(2);
 2/29=1/2;
 99/5=20/99;
 2/29=1/2;
 3/5=1,6=6,7=101,11=2,25=1,30=1,71=2,74=-55,140=1/1,2,3;
 4/5=5,16=3,69=1/1;
 5/5=2,38=5/2;
 8/6=4,10=90,11=11/1;
 11/6=1,8=1,9=11,15=111,16=1/1,2,10;
 10/6=1,13=1/2;
 7/10=1,25=1/1,2,3,16;
 1/18=10,26=3,39=8,42=30,44=3,45=2/23(-8);
 2/29=1/2;
 6/7=2,8=2,9=2,10=2,19=2,28=1/1;
 99/5=20,9=1/99;
 Leave Link    1 at Sat Nov 12 15:35:58 2022, MaxMem=  8053063680 cpu:               8.9 elap:               0.6
 (Enter /project/chenjingdan/g16/l101.exe)
 -----
 TITLE
 -----
 Symbolic Z-matrix:
 Charge =  0 Multiplicity = 1
 O                     0.33814   5.31377  -1.99568 
 N                    -1.51321   2.69431  -0.27517 
 O                    -1.6756    4.48243  -2.46029 
 O                    -3.37583   3.88112  -0.8383 
 C                     0.22117   4.19392   0.64618 
 N                    -6.18395  -1.19043   1.9048 
 C                    -5.27897  -0.16681   1.36781 
 C                    -0.66299   4.47472  -1.71668 
 C                    -3.68268   1.82585   0.32127 
 C                    -0.43837   3.61727  -0.60134 
 C                    -2.81064   2.85696  -0.29814 
 C                    -3.11016   0.79383   1.06192 
 C                    -5.85531   0.88214   0.66314 
 C                    -5.06191   1.88816   0.1282 
 C                    -3.88843  -0.24877   1.56155 
 O                    -7.22569  -1.37294   1.29851 
 O                    -5.85109  -1.75966   2.92288 
 H                     0.06452   5.82086  -2.77428 
 H                    -1.16551   1.75052  -0.04014 
 H                    -2.71573   4.23292  -1.61594 
 H                     0.59486   3.38923   1.28666 
 H                     1.08372   4.79573   0.35439 
 H                    -0.46954   4.81563   1.22785 
 H                    -2.04339   0.76715   1.22912 
 H                    -5.4934    2.7058   -0.43613 
 O                     1.55056   1.94853  -0.7762 
 O                     1.48706  -0.21911  -1.91981 
 C                    -4.0208    2.25958  -3.57654 
 O                     2.14425  -0.20797   0.52811 
 C                     0.47497   0.2796   -4.55054 
 C                     2.06148   4.87739   4.43251 
 O                    -0.25106   0.24741  -0.01131 
 C                     4.17332   3.69283   0.02987 
 C                     3.14624   0.06057   3.43878 
 C                    -2.72072  -2.00496  -1.27034 
 C                    -3.27557   0.11366  -2.46509 
 C                     2.08114  -2.51438  -1.64816 
 C                     0.49415  -4.25277  -2.19768 
 C                    -1.76123   1.2058   -3.9532 
 C                    -2.998     1.18426  -3.31413 
 C                     4.09051  -1.12242  -0.54316 
 C                    -1.10377  -0.86463  -2.89016 
 C                     1.1649   -1.56198  -2.06097 
 C                     3.51783  -2.38007  -1.17956 
 C                    -0.81598   0.19461  -3.77266 
 C                     4.49928  -2.55733  -2.37481 
 C                    -2.35244  -0.90518  -2.23577 
 C                     1.70814  -3.86088  -1.65051 
 C                    -0.37748  -3.2795   -2.68217 
 C                     4.26771   0.86948   0.8492 
 C                     3.51166  -0.15892   0.27283 
 C                     5.85821  -2.08462  -1.8342 
 C                    -0.09002  -1.91343  -2.57731 
 C                     6.23159  -0.00969  -0.29317 
 C                     3.65856   1.88991   1.75161 
 C                     5.45166  -1.01365  -0.84977 
 C                     2.62928   2.48285   3.8533 
 C                     5.63674   0.91077   0.56457 
 C                     3.13909   1.50316   2.99865 
 C                     3.16436   4.19321   2.27188 
 C                     3.66469   3.24726   1.37924 
 C                     2.63496   3.83212   3.51034 
 C                     3.60803  -3.61497  -0.23968 
 C                     2.7531   -4.69151  -0.93989 
 P                     1.13343   0.48936  -0.51606 
 H                     0.69083   2.70204  -0.8909 
 H                    -3.53949   3.22787  -3.73569 
 H                    -4.60629   2.02521  -4.4718 
 H                    -4.72047   2.35307  -2.74148 
 H                     0.28132   0.66241  -5.55581 
 H                     0.95855  -0.69525  -4.64213 
 H                     1.18279   0.95238  -4.05835 
 H                     1.90899   4.47947   5.4382 
 H                     2.7218    5.74589   4.505 
 H                     1.09347   5.23372   4.06391 
 H                     3.84007   4.71195  -0.18246 
 H                     5.26676   3.68521  -0.01831 
 H                     3.79851   3.03556  -0.7581 
 H                     2.39435  -0.52103   2.89782 
 H                     2.93396  -0.01574   4.50738 
 H                     4.11753  -0.40496   3.24783 
 H                    -3.12806  -2.8809   -1.78622 
 H                    -1.85659  -2.34891  -0.70048 
 H                    -3.49353  -1.6631   -0.57732 
 H                    -4.23742   0.07159  -1.95607 
 H                     0.21046  -5.30052  -2.22483 
 H                    -1.52673   2.02954  -4.62467 
 H                     4.17606  -1.8975   -3.18687 
 H                     4.50705  -3.58304  -2.75343 
 H                    -1.33112  -3.57481  -3.10792 
 H                     6.51952  -1.70334  -2.6168 
 H                     6.39124  -2.89855  -1.32742 
 H                     7.28916   0.06281  -0.52846 
 H                     2.2317    2.18087   4.81988 
 H                     6.23272   1.69516   1.02165 
 H                     3.17167   5.24306   1.98342 
 H                     4.64083  -3.92451  -0.0564 
 H                     3.1533   -3.3506    0.72154 
 H                     2.29962  -5.39135  -0.23212 
 H                     3.34832  -5.28273  -1.64589 
 H                    -6.93053   0.87448   0.53176 
 O                    -3.35368  -1.33331   2.15253 
 C                    -1.94495  -1.46994   2.07971 
 H                    -1.54563  -1.14057   1.11521 
 H                    -1.45236  -0.90779   2.88114 
 C                    -1.6265   -2.94027   2.24277 
 C                    -0.14069  -3.21851   1.97419 
 F                    -1.90656  -3.37732   3.48682 
 F                    -2.33575  -3.67948   1.36461 
 F                     0.17887  -2.85344   0.73078 
 F                     0.61258  -2.51784   2.82705 
 F                     0.13282  -4.51      2.12305 
 
 ITRead=  0  0  0  0  0  0  0  0  0  0  0  0  0  0  0  0  0  0  0  0
 ITRead=  0  0  0  0  0  0  0  0  0  0  0  0  0  0  0  0  0  0  0  0
 ITRead=  0  0  0  0  0  0  0  0  0  0  0  0  0  0  0  0  0  0  0  0
 ITRead=  0  0  0  0  0  0  0  0  0  0  0  0  0  0  0  0  0  0  0  0
 ITRead=  0  0  0  0  0  0  0  0  0  0  0  0  0  0  0  0  0  0  0  0
 ITRead=  0  0  0  0  0  0  0  0  0  0  0  0
 MicOpt= -1 -1 -1 -1 -1 -1 -1 -1 -1 -1 -1 -1 -1 -1 -1 -1 -1 -1 -1 -1
 MicOpt= -1 -1 -1 -1 -1 -1 -1 -1 -1 -1 -1 -1 -1 -1 -1 -1 -1 -1 -1 -1
 MicOpt= -1 -1 -1 -1 -1 -1 -1 -1 -1 -1 -1 -1 -1 -1 -1 -1 -1 -1 -1 -1
 MicOpt= -1 -1 -1 -1 -1 -1 -1 -1 -1 -1 -1 -1 -1 -1 -1 -1 -1 -1 -1 -1
 MicOpt= -1 -1 -1 -1 -1 -1 -1 -1 -1 -1 -1 -1 -1 -1 -1 -1 -1 -1 -1 -1
 MicOpt= -1 -1 -1 -1 -1 -1 -1 -1 -1 -1 -1 -1
 NAtoms=    112 NQM=      112 NQMF=       0 NMMI=      0 NMMIF=      0
                NMic=       0 NMicF=      0.
                    Isotopes and Nuclear Properties:
 (Nuclear quadrupole moments (NQMom) in fm**2, nuclear magnetic moments (NMagM)
  in nuclear magnetons)

  Atom         1           2           3           4           5           6           7           8           9          10
 IAtWgt=          16          14          16          16          12          14          12          12          12          12
 AtmWgt=  15.9949146  14.0030740  15.9949146  15.9949146  12.0000000  14.0030740  12.0000000  12.0000000  12.0000000  12.0000000
 NucSpn=           0           2           0           0           0           2           0           0           0           0
 AtZEff=  -0.0000000  -0.0000000  -0.0000000  -0.0000000  -0.0000000  -0.0000000  -0.0000000  -0.0000000  -0.0000000  -0.0000000
 NQMom=    0.0000000   2.0440000   0.0000000   0.0000000   0.0000000   2.0440000   0.0000000   0.0000000   0.0000000   0.0000000
 NMagM=    0.0000000   0.4037610   0.0000000   0.0000000   0.0000000   0.4037610   0.0000000   0.0000000   0.0000000   0.0000000
 AtZNuc=   8.0000000   7.0000000   8.0000000   8.0000000   6.0000000   7.0000000   6.0000000   6.0000000   6.0000000   6.0000000

  Atom        11          12          13          14          15          16          17          18          19          20
 IAtWgt=          12          12          12          12          12          16          16           1           1           1
 AtmWgt=  12.0000000  12.0000000  12.0000000  12.0000000  12.0000000  15.9949146  15.9949146   1.0078250   1.0078250   1.0078250
 NucSpn=           0           0           0           0           0           0           0           1           1           1
 AtZEff=  -0.0000000  -0.0000000  -0.0000000  -0.0000000  -0.0000000  -0.0000000  -0.0000000  -0.0000000  -0.0000000  -0.0000000
 NQMom=    0.0000000   0.0000000   0.0000000   0.0000000   0.0000000   0.0000000   0.0000000   0.0000000   0.0000000   0.0000000
 NMagM=    0.0000000   0.0000000   0.0000000   0.0000000   0.0000000   0.0000000   0.0000000   2.7928460   2.7928460   2.7928460
 AtZNuc=   6.0000000   6.0000000   6.0000000   6.0000000   6.0000000   8.0000000   8.0000000   1.0000000   1.0000000   1.0000000

  Atom        21          22          23          24          25          26          27          28          29          30
 IAtWgt=           1           1           1           1           1          16          16          12          16          12
 AtmWgt=   1.0078250   1.0078250   1.0078250   1.0078250   1.0078250  15.9949146  15.9949146  12.0000000  15.9949146  12.0000000
 NucSpn=           1           1           1           1           1           0           0           0           0           0
 AtZEff=  -0.0000000  -0.0000000  -0.0000000  -0.0000000  -0.0000000  -0.0000000  -0.0000000  -0.0000000  -0.0000000  -0.0000000
 NQMom=    0.0000000   0.0000000   0.0000000   0.0000000   0.0000000   0.0000000   0.0000000   0.0000000   0.0000000   0.0000000
 NMagM=    2.7928460   2.7928460   2.7928460   2.7928460   2.7928460   0.0000000   0.0000000   0.0000000   0.0000000   0.0000000
 AtZNuc=   1.0000000   1.0000000   1.0000000   1.0000000   1.0000000   8.0000000   8.0000000   6.0000000   8.0000000   6.0000000

  Atom        31          32          33          34          35          36          37          38          39          40
 IAtWgt=          12          16          12          12          12          12          12          12          12          12
 AtmWgt=  12.0000000  15.9949146  12.0000000  12.0000000  12.0000000  12.0000000  12.0000000  12.0000000  12.0000000  12.0000000
 NucSpn=           0           0           0           0           0           0           0           0           0           0
 AtZEff=  -0.0000000  -0.0000000  -0.0000000  -0.0000000  -0.0000000  -0.0000000  -0.0000000  -0.0000000  -0.0000000  -0.0000000
 NQMom=    0.0000000   0.0000000   0.0000000   0.0000000   0.0000000   0.0000000   0.0000000   0.0000000   0.0000000   0.0000000
 NMagM=    0.0000000   0.0000000   0.0000000   0.0000000   0.0000000   0.0000000   0.0000000   0.0000000   0.0000000   0.0000000
 AtZNuc=   6.0000000   8.0000000   6.0000000   6.0000000   6.0000000   6.0000000   6.0000000   6.0000000   6.0000000   6.0000000

  Atom        41          42          43          44          45          46          47          48          49          50
 IAtWgt=          12          12          12          12          12          12          12          12          12          12
 AtmWgt=  12.0000000  12.0000000  12.0000000  12.0000000  12.0000000  12.0000000  12.0000000  12.0000000  12.0000000  12.0000000
 NucSpn=           0           0           0           0           0           0           0           0           0           0
 AtZEff=  -0.0000000  -0.0000000  -0.0000000  -0.0000000  -0.0000000  -0.0000000  -0.0000000  -0.0000000  -0.0000000  -0.0000000
 NQMom=    0.0000000   0.0000000   0.0000000   0.0000000   0.0000000   0.0000000   0.0000000   0.0000000   0.0000000   0.0000000
 NMagM=    0.0000000   0.0000000   0.0000000   0.0000000   0.0000000   0.0000000   0.0000000   0.0000000   0.0000000   0.0000000
 AtZNuc=   6.0000000   6.0000000   6.0000000   6.0000000   6.0000000   6.0000000   6.0000000   6.0000000   6.0000000   6.0000000

  Atom        51          52          53          54          55          56          57          58          59          60
 IAtWgt=          12          12          12          12          12          12          12          12          12          12
 AtmWgt=  12.0000000  12.0000000  12.0000000  12.0000000  12.0000000  12.0000000  12.0000000  12.0000000  12.0000000  12.0000000
 NucSpn=           0           0           0           0           0           0           0           0           0           0
 AtZEff=  -0.0000000  -0.0000000  -0.0000000  -0.0000000  -0.0000000  -0.0000000  -0.0000000  -0.0000000  -0.0000000  -0.0000000
 NQMom=    0.0000000   0.0000000   0.0000000   0.0000000   0.0000000   0.0000000   0.0000000   0.0000000   0.0000000   0.0000000
 NMagM=    0.0000000   0.0000000   0.0000000   0.0000000   0.0000000   0.0000000   0.0000000   0.0000000   0.0000000   0.0000000
 AtZNuc=   6.0000000   6.0000000   6.0000000   6.0000000   6.0000000   6.0000000   6.0000000   6.0000000   6.0000000   6.0000000

  Atom        61          62          63          64          65          66          67          68          69          70
 IAtWgt=          12          12          12          12          31           1           1           1           1           1
 AtmWgt=  12.0000000  12.0000000  12.0000000  12.0000000  30.9737634   1.0078250   1.0078250   1.0078250   1.0078250   1.0078250
 NucSpn=           0           0           0           0           1           1           1           1           1           1
 AtZEff=  -0.0000000  -0.0000000  -0.0000000  -0.0000000  -0.0000000  -0.0000000  -0.0000000  -0.0000000  -0.0000000  -0.0000000
 NQMom=    0.0000000   0.0000000   0.0000000   0.0000000   0.0000000   0.0000000   0.0000000   0.0000000   0.0000000   0.0000000
 NMagM=    0.0000000   0.0000000   0.0000000   0.0000000   1.1316000   2.7928460   2.7928460   2.7928460   2.7928460   2.7928460
 AtZNuc=   6.0000000   6.0000000   6.0000000   6.0000000  15.0000000   1.0000000   1.0000000   1.0000000   1.0000000   1.0000000

  Atom        71          72          73          74          75          76          77          78          79          80
 IAtWgt=           1           1           1           1           1           1           1           1           1           1
 AtmWgt=   1.0078250   1.0078250   1.0078250   1.0078250   1.0078250   1.0078250   1.0078250   1.0078250   1.0078250   1.0078250
 NucSpn=           1           1           1           1           1           1           1           1           1           1
 AtZEff=  -0.0000000  -0.0000000  -0.0000000  -0.0000000  -0.0000000  -0.0000000  -0.0000000  -0.0000000  -0.0000000  -0.0000000
 NQMom=    0.0000000   0.0000000   0.0000000   0.0000000   0.0000000   0.0000000   0.0000000   0.0000000   0.0000000   0.0000000
 NMagM=    2.7928460   2.7928460   2.7928460   2.7928460   2.7928460   2.7928460   2.7928460   2.7928460   2.7928460   2.7928460
 AtZNuc=   1.0000000   1.0000000   1.0000000   1.0000000   1.0000000   1.0000000   1.0000000   1.0000000   1.0000000   1.0000000

  Atom        81          82          83          84          85          86          87          88          89          90
 IAtWgt=           1           1           1           1           1           1           1           1           1           1
 AtmWgt=   1.0078250   1.0078250   1.0078250   1.0078250   1.0078250   1.0078250   1.0078250   1.0078250   1.0078250   1.0078250
 NucSpn=           1           1           1           1           1           1           1           1           1           1
 AtZEff=  -0.0000000  -0.0000000  -0.0000000  -0.0000000  -0.0000000  -0.0000000  -0.0000000  -0.0000000  -0.0000000  -0.0000000
 NQMom=    0.0000000   0.0000000   0.0000000   0.0000000   0.0000000   0.0000000   0.0000000   0.0000000   0.0000000   0.0000000
 NMagM=    2.7928460   2.7928460   2.7928460   2.7928460   2.7928460   2.7928460   2.7928460   2.7928460   2.7928460   2.7928460
 AtZNuc=   1.0000000   1.0000000   1.0000000   1.0000000   1.0000000   1.0000000   1.0000000   1.0000000   1.0000000   1.0000000

  Atom        91          92          93          94          95          96          97          98          99         100
 IAtWgt=           1           1           1           1           1           1           1           1           1           1
 AtmWgt=   1.0078250   1.0078250   1.0078250   1.0078250   1.0078250   1.0078250   1.0078250   1.0078250   1.0078250   1.0078250
 NucSpn=           1           1           1           1           1           1           1           1           1           1
 AtZEff=  -0.0000000  -0.0000000  -0.0000000  -0.0000000  -0.0000000  -0.0000000  -0.0000000  -0.0000000  -0.0000000  -0.0000000
 NQMom=    0.0000000   0.0000000   0.0000000   0.0000000   0.0000000   0.0000000   0.0000000   0.0000000   0.0000000   0.0000000
 NMagM=    2.7928460   2.7928460   2.7928460   2.7928460   2.7928460   2.7928460   2.7928460   2.7928460   2.7928460   2.7928460
 AtZNuc=   1.0000000   1.0000000   1.0000000   1.0000000   1.0000000   1.0000000   1.0000000   1.0000000   1.0000000   1.0000000

  Atom       101         102         103         104         105         106         107         108         109         110
 IAtWgt=           1          16          12           1           1          12          12          19          19          19
 AtmWgt=   1.0078250  15.9949146  12.0000000   1.0078250   1.0078250  12.0000000  12.0000000  18.9984032  18.9984032  18.9984032
 NucSpn=           1           0           0           1           1           0           0           1           1           1
 AtZEff=  -0.0000000  -0.0000000  -0.0000000  -0.0000000  -0.0000000  -0.0000000  -0.0000000  -0.0000000  -0.0000000  -0.0000000
 NQMom=    0.0000000   0.0000000   0.0000000   0.0000000   0.0000000   0.0000000   0.0000000   0.0000000   0.0000000   0.0000000
 NMagM=    2.7928460   0.0000000   0.0000000   2.7928460   2.7928460   0.0000000   0.0000000   2.6288670   2.6288670   2.6288670
 AtZNuc=   1.0000000   8.0000000   6.0000000   1.0000000   1.0000000   6.0000000   6.0000000   9.0000000   9.0000000   9.0000000

  Atom       111         112
 IAtWgt=          19          19
 AtmWgt=  18.9984032  18.9984032
 NucSpn=           1           1
 AtZEff=  -0.0000000  -0.0000000
 NQMom=    0.0000000   0.0000000
 NMagM=    2.6288670   2.6288670
 AtZNuc=   9.0000000   9.0000000
 Leave Link  101 at Sat Nov 12 15:35:58 2022, MaxMem=  8053063680 cpu:               2.1 elap:               0.2
 (Enter /project/chenjingdan/g16/l123.exe)
 IRC-IRC-IRC-IRC-IRC-IRC-IRC-IRC-IRC-IRC-IRC-IRC-IRC-IRC-IRC-IRC-IRC-IRC
 ------------------------------------------------------------------------
 INPUT DATA FOR L123
 ------------------------------------------------------------------------
 GENERAL PARAMETERS:
 Follow reaction path in both directions.
 Maximum points per path      =  30
 Step size                    =   0.080 bohr
 Integration scheme           = LQA                                 
 Initial Hessian              = CalcFC
 Hessian evaluation           = All updating
 Hessian updating method      = Bofill                              
 ------------------------------------------------------------------------
 IRC-IRC-IRC-IRC-IRC-IRC-IRC-IRC-IRC-IRC-IRC-IRC-IRC-IRC-IRC-IRC-IRC-IRC
 Leave Link  123 at Sat Nov 12 15:35:58 2022, MaxMem=  8053063680 cpu:               0.3 elap:               0.0
 (Enter /project/chenjingdan/g16/l202.exe)
 Symmetry turned off by external request.
 Stoichiometry    C48H46F5N2O10P
 Framework group  C1[X(C48H46F5N2O10P)]
 Deg. of freedom   330
 Full point group                 C1      NOp   1
                          Input orientation:                          
 ---------------------------------------------------------------------
 Center     Atomic      Atomic             Coordinates (Angstroms)
 Number     Number       Type             X           Y           Z
 ---------------------------------------------------------------------
      1          8           0        0.338138    5.313774   -1.995682
      2          7           0       -1.513210    2.694312   -0.275172
      3          8           0       -1.675601    4.482432   -2.460292
      4          8           0       -3.375831    3.881121   -0.838302
      5          6           0        0.221169    4.193923    0.646178
      6          7           0       -6.183948   -1.190430    1.904798
      7          6           0       -5.278968   -0.166810    1.367808
      8          6           0       -0.662991    4.474723   -1.716682
      9          6           0       -3.682679    1.825851    0.321268
     10          6           0       -0.438371    3.617273   -0.601342
     11          6           0       -2.810640    2.856962   -0.298142
     12          6           0       -3.110159    0.793832    1.061918
     13          6           0       -5.855309    0.882140    0.663138
     14          6           0       -5.061910    1.888160    0.128198
     15          6           0       -3.888428   -0.248769    1.561548
     16          8           0       -7.225688   -1.372941    1.298508
     17          8           0       -5.851087   -1.759660    2.922878
     18          1           0        0.064518    5.820863   -2.774282
     19          1           0       -1.165509    1.750523   -0.040142
     20          1           0       -2.715731    4.232922   -1.615942
     21          1           0        0.594860    3.389234    1.286658
     22          1           0        1.083719    4.795734    0.354388
     23          1           0       -0.469541    4.815633    1.227848
     24          1           0       -2.043389    0.767152    1.229118
     25          1           0       -5.493400    2.705800   -0.436132
     26          8           0        1.550560    1.948534   -0.776202
     27          8           0        1.487062   -0.219106   -1.919812
     28          6           0       -4.020800    2.259581   -3.576542
     29          8           0        2.144252   -0.207965    0.528108
     30          6           0        0.474971    0.279604   -4.550542
     31          6           0        2.061479    4.877395    4.432508
     32          8           0       -0.251059    0.247413   -0.011312
     33          6           0        4.173319    3.692826    0.029868
     34          6           0        3.146242    0.060575    3.438778
     35          6           0       -2.720717   -2.004958   -1.270342
     36          6           0       -3.275568    0.113661   -2.465092
     37          6           0        2.081143   -2.514375   -1.648162
     38          6           0        0.494154   -4.252766   -2.197682
     39          6           0       -1.761229    1.205802   -3.953202
     40          6           0       -2.997999    1.184262   -3.314132
     41          6           0        4.090512   -1.122424   -0.543162
     42          6           0       -1.103768   -0.864627   -2.890162
     43          6           0        1.164902   -1.561976   -2.060972
     44          6           0        3.517833   -2.380065   -1.179562
     45          6           0       -0.815979    0.194613   -3.772662
     46          6           0        4.499283   -2.557334   -2.374812
     47          6           0       -2.352438   -0.905178   -2.235772
     48          6           0        1.708144   -3.860876   -1.650512
     49          6           0       -0.377476   -3.279497   -2.682172
     50          6           0        4.267711    0.869476    0.849198
     51          6           0        3.511662   -0.158915    0.272828
     52          6           0        5.858213   -2.084623   -1.834202
     53          6           0       -0.090017   -1.913427   -2.577312
     54          6           0        6.231592   -0.009693   -0.293172
     55          6           0        3.658560    1.889915    1.751608
     56          6           0        5.451662   -1.013653   -0.849772
     57          6           0        2.629280    2.482855    3.853298
     58          6           0        5.636741    0.910767    0.564568
     59          6           0        3.139091    1.503165    2.998648
     60          6           0        3.164359    4.193215    2.271878
     61          6           0        3.664690    3.247265    1.379238
     62          6           0        2.634959    3.832125    3.510338
     63          6           0        3.608034   -3.614965   -0.239682
     64          6           0        2.753104   -4.691505   -0.939892
     65         15           0        1.133431    0.489364   -0.516062
     66          1           0        0.690830    2.702044   -0.890902
     67          1           0       -3.539490    3.227871   -3.735692
     68          1           0       -4.606290    2.025211   -4.471802
     69          1           0       -4.720470    2.353071   -2.741482
     70          1           0        0.281321    0.662414   -5.555812
     71          1           0        0.958552   -0.695246   -4.642132
     72          1           0        1.182791    0.952384   -4.058352
     73          1           0        1.908989    4.479474    5.438198
     74          1           0        2.721798    5.745895    4.504998
     75          1           0        1.093469    5.233724    4.063908
     76          1           0        3.840069    4.711946   -0.182462
     77          1           0        5.266759    3.685206   -0.018312
     78          1           0        3.798510    3.035556   -0.758102
     79          1           0        2.394352   -0.521025    2.897818
     80          1           0        2.933962   -0.015735    4.507378
     81          1           0        4.117532   -0.404964    3.247828
     82          1           0       -3.128057   -2.880898   -1.786222
     83          1           0       -1.856587   -2.348908   -0.700482
     84          1           0       -3.493527   -1.663099   -0.577322
     85          1           0       -4.237418    0.071591   -1.956072
     86          1           0        0.210465   -5.300517   -2.224832
     87          1           0       -1.526730    2.029542   -4.624672
     88          1           0        4.176063   -1.897504   -3.186872
     89          1           0        4.507054   -3.583044   -2.753432
     90          1           0       -1.331116   -3.574807   -3.107922
     91          1           0        6.519523   -1.703343   -2.616802
     92          1           0        6.391243   -2.898553   -1.327422
     93          1           0        7.289162    0.062808   -0.528462
     94          1           0        2.231700    2.180875    4.819878
     95          1           0        6.232721    1.695157    1.021648
     96          1           0        3.171669    5.243065    1.983418
     97          1           0        4.640834   -3.924514   -0.056402
     98          1           0        3.153304   -3.350595    0.721538
     99          1           0        2.299625   -5.391345   -0.232122
    100          1           0        3.348325   -5.282725   -1.645892
    101          1           0       -6.930529    0.874479    0.531758
    102          8           0       -3.353678   -1.333309    2.152528
    103          6           0       -1.944948   -1.469938    2.079708
    104          1           0       -1.545628   -1.140568    1.115208
    105          1           0       -1.452358   -0.907788    2.881138
    106          6           0       -1.626497   -2.940268    2.242768
    107          6           0       -0.140687   -3.218507    1.974188
    108          9           0       -1.906556   -3.377318    3.486818
    109          9           0       -2.335746   -3.679478    1.364608
    110          9           0        0.178873   -2.853437    0.730778
    111          9           0        0.612583   -2.517836    2.827048
    112          9           0        0.132824   -4.509997    2.123048
 ---------------------------------------------------------------------
 Rotational constants (GHZ):           0.0464883           0.0362389           0.0309842
 Leave Link  202 at Sat Nov 12 15:35:58 2022, MaxMem=  8053063680 cpu:               0.2 elap:               0.0
 (Enter /project/chenjingdan/g16/l301.exe)
 Standard basis: 6-31G(d,p) (6D, 7F)
 Ernie: Thresh=  0.10000D-02 Tol=  0.10000D-05 Strict=F.
  1224 basis functions,  2194 primitive gaussians,  1224 cartesian basis functions
   244 alpha electrons      244 beta electrons
       nuclear repulsion energy     12300.3870265575 Hartrees.
 IExCor= 4336 DFT=T Ex+Corr=M062X ExCW=0 ScaHFX=  0.540000
 ScaDFX=  1.000000  1.000000  1.000000  1.000000 ScalE2=  1.000000  1.000000
 IRadAn=      5 IRanWt=     -1 IRanGd=            0 ICorTp=0 IEmpDi=  4
 NAtoms=  112 NActive=  112 NUniq=  112 SFac= 1.00D+00 NAtFMM=   60 NAOKFM=T Big=T
 Integral buffers will be    131072 words long.
 Raffenetti 2 integral format.
 Two-electron integral symmetry is turned off.
 Leave Link  301 at Sat Nov 12 15:35:59 2022, MaxMem=  8053063680 cpu:               1.1 elap:               0.1
 (Enter /project/chenjingdan/g16/l302.exe)
 NPDir=0 NMtPBC=     1 NCelOv=     1 NCel=       1 NClECP=     1 NCelD=      1
         NCelK=      1 NCelE2=     1 NClLst=     1 CellRange=     0.0.
 One-electron integrals computed using PRISM.
 NBasis=  1224 RedAO= T EigKep=  2.33D-04  NBF=  1224
 NBsUse=  1224 1.00D-06 EigRej= -1.00D+00 NBFU=  1224
 Precomputing XC quadrature grid using
 IXCGrd= 4 IRadAn=           5 IRanWt=          -1 IRanGd=           0 AccXCQ= 0.00D+00.
 Generated NRdTot=       0 NPtTot=           0 NUsed=           0 NTot=          32
 NSgBfM=  1145  1138  1139  1145  1145 MxSgAt=   112 MxSgA2=   112.
 Leave Link  302 at Sat Nov 12 15:36:02 2022, MaxMem=  8053063680 cpu:              53.5 elap:               3.4
 (Enter /project/chenjingdan/g16/l303.exe)
 DipDrv:  MaxL=1.
 Leave Link  303 at Sat Nov 12 15:36:02 2022, MaxMem=  8053063680 cpu:               2.6 elap:               0.2
 (Enter /project/chenjingdan/g16/l401.exe)
 ExpMin= 9.98D-02 ExpMax= 1.94D+04 ExpMxC= 2.91D+03 IAcc=3 IRadAn=         5 AccDes= 0.00D+00
 Harris functional with IExCor= 1009 and IRadAn=       5 diagonalized for initial guess.
 HarFok:  IExCor= 1009 AccDes= 0.00D+00 IRadAn=         5 IDoV= 1 UseB2=F ITyADJ=14
 ICtDFT=  3500011 ScaDFX=  1.000000  1.000000  1.000000  1.000000
 FoFCou: FMM=F IPFlag=           0 FMFlag=      100000 FMFlg1=        2001
         NFxFlg=           0 DoJE=T BraDBF=F KetDBF=T FulRan=T
         wScrn=  0.000000 ICntrl=       500 IOpCl=  0 I1Cent=   200000004 NGrid=           0
         NMat0=    1 NMatS0=      1 NMatT0=    0 NMatD0=    1 NMtDS0=    0 NMtDT0=    0
 Symmetry not used in FoFCou.
 Harris En= -3556.24706771951    
 JPrj=0 DoOrth=F DoCkMO=F.
 Leave Link  401 at Sat Nov 12 15:36:11 2022, MaxMem=  8053063680 cpu:             139.3 elap:               8.7
 (Enter /project/chenjingdan/g16/l502.exe)
 Two-electron integral symmetry not used.
 Closed shell SCF:
 Using DIIS extrapolation, IDIIS=  1040.
 NGot=  8053063680 LenX=  8050035410 LenY=  8048536010
 Requested convergence on RMS density matrix=1.00D-08 within 128 cycles.
 Requested convergence on MAX density matrix=1.00D-06.
 Requested convergence on             energy=1.00D-06.
 No special actions if energy rises.
 Fock matrices will be formed incrementally for  20 cycles.
 Integral accuracy reduced to 1.0D-05 until final iterations.

 Cycle   1  Pass 0  IDiag  1:
 FoFJK:  IHMeth= 1 ICntrl=       0 DoSepK=F KAlg= 0 I1Cent=           0 FoldK=F
 IRaf= 740000000 NMat=       1 IRICut=       1 DoRegI=T DoRafI=F ISym2E= 0 IDoP0=0 IntGTp=1.
 FoFCou: FMM=T IPFlag=           0 FMFlag=      100000 FMFlg1=        2001
         NFxFlg=           0 DoJE=F BraDBF=F KetDBF=F FulRan=T
         wScrn=  0.000000 ICntrl=         0 IOpCl=  0 I1Cent=           0 NGrid=           0
         NMat0=    1 NMatS0=      1 NMatT0=    0 NMatD0=    1 NMtDS0=    0 NMtDT0=    0
 Symmetry not used in FoFCou.
 FMM levels:  10  Number of levels for PrismC:   9
 E= -3556.41642602419    
 DIIS: error= 1.66D-02 at cycle   1 NSaved=   1.
 NSaved= 1 IEnMin= 1 EnMin= -3556.41642602419     IErMin= 1 ErrMin= 1.66D-02
 ErrMax= 1.66D-02  0.00D+00 EMaxC= 1.00D-01 BMatC= 1.90D+00 BMatP= 1.90D+00
 IDIUse=3 WtCom= 8.34D-01 WtEn= 1.66D-01
 Coeff-Com:  0.100D+01
 Coeff-En:   0.100D+01
 Coeff:      0.100D+01
 Gap=     0.180 Goal=   None    Shift=    0.000
 GapD=    0.180 DampG=1.000 DampE=0.500 DampFc=0.5000 IDamp=-1.
 Damping current iteration by 5.00D-01
 RMSDP=1.96D-03 MaxDP=2.39D-01              OVMax= 2.12D-01

 Cycle   2  Pass 0  IDiag  1:
 RMSU=  9.67D-04    CP:  9.84D-01
 E= -3557.17618914996     Delta-E=       -0.759763125770 Rises=F Damp=T
 DIIS: error= 7.78D-03 at cycle   2 NSaved=   2.
 NSaved= 2 IEnMin= 2 EnMin= -3557.17618914996     IErMin= 2 ErrMin= 7.78D-03
 ErrMax= 7.78D-03  0.00D+00 EMaxC= 1.00D-01 BMatC= 1.62D-01 BMatP= 1.90D+00
 IDIUse=3 WtCom= 9.22D-01 WtEn= 7.78D-02
 Coeff-Com: -0.508D-01 0.105D+01
 Coeff-En:   0.000D+00 0.100D+01
 Coeff:     -0.469D-01 0.105D+01
 Gap=     0.228 Goal=   None    Shift=    0.000
 RMSDP=6.10D-04 MaxDP=9.26D-02 DE=-7.60D-01 OVMax= 1.16D-01

 Cycle   3  Pass 0  IDiag  1:
 RMSU=  5.95D-04    CP:  9.73D-01  1.08D+00
 E= -3557.89578217167     Delta-E=       -0.719593021704 Rises=F Damp=F
 DIIS: error= 6.26D-03 at cycle   3 NSaved=   3.
 NSaved= 3 IEnMin= 3 EnMin= -3557.89578217167     IErMin= 3 ErrMin= 6.26D-03
 ErrMax= 6.26D-03  0.00D+00 EMaxC= 1.00D-01 BMatC= 8.29D-02 BMatP= 1.62D-01
 IDIUse=3 WtCom= 9.37D-01 WtEn= 6.26D-02
 Coeff-Com: -0.903D-01 0.452D+00 0.639D+00
 Coeff-En:   0.000D+00 0.000D+00 0.100D+01
 Coeff:     -0.846D-01 0.423D+00 0.661D+00
 Gap=     0.202 Goal=   None    Shift=    0.000
 RMSDP=3.01D-04 MaxDP=3.96D-02 DE=-7.20D-01 OVMax= 4.98D-02

 Cycle   4  Pass 0  IDiag  1:
 RMSU=  2.22D-04    CP:  9.75D-01  1.15D+00  6.77D-01
 E= -3557.94846603038     Delta-E=       -0.052683858710 Rises=F Damp=F
 DIIS: error= 2.60D-03 at cycle   4 NSaved=   4.
 NSaved= 4 IEnMin= 4 EnMin= -3557.94846603038     IErMin= 4 ErrMin= 2.60D-03
 ErrMax= 2.60D-03  0.00D+00 EMaxC= 1.00D-01 BMatC= 1.62D-02 BMatP= 8.29D-02
 IDIUse=3 WtCom= 9.74D-01 WtEn= 2.60D-02
 Coeff-Com: -0.312D-01 0.889D-01 0.342D+00 0.601D+00
 Coeff-En:   0.000D+00 0.000D+00 0.160D+00 0.840D+00
 Coeff:     -0.304D-01 0.865D-01 0.337D+00 0.607D+00
 Gap=     0.195 Goal=   None    Shift=    0.000
 RMSDP=1.22D-04 MaxDP=1.21D-02 DE=-5.27D-02 OVMax= 1.93D-02

 Cycle   5  Pass 0  IDiag  1:
 RMSU=  5.45D-05    CP:  9.74D-01  1.14D+00  7.75D-01  5.88D-01
 E= -3557.96145779032     Delta-E=       -0.012991759939 Rises=F Damp=F
 DIIS: error= 3.27D-04 at cycle   5 NSaved=   5.
 NSaved= 5 IEnMin= 5 EnMin= -3557.96145779032     IErMin= 5 ErrMin= 3.27D-04
 ErrMax= 3.27D-04  0.00D+00 EMaxC= 1.00D-01 BMatC= 9.13D-04 BMatP= 1.62D-02
 IDIUse=3 WtCom= 9.97D-01 WtEn= 3.27D-03
 Coeff-Com: -0.108D-01 0.229D-01 0.139D+00 0.307D+00 0.541D+00
 Coeff-En:   0.000D+00 0.000D+00 0.000D+00 0.000D+00 0.100D+01
 Coeff:     -0.107D-01 0.228D-01 0.139D+00 0.306D+00 0.542D+00
 Gap=     0.196 Goal=   None    Shift=    0.000
 RMSDP=3.15D-05 MaxDP=2.43D-03 DE=-1.30D-02 OVMax= 5.47D-03

 Cycle   6  Pass 0  IDiag  1:
 RMSU=  1.75D-05    CP:  9.74D-01  1.15D+00  7.72D-01  6.49D-01  5.98D-01
 E= -3557.96227384406     Delta-E=       -0.000816053740 Rises=F Damp=F
 DIIS: error= 1.03D-04 at cycle   6 NSaved=   6.
 NSaved= 6 IEnMin= 6 EnMin= -3557.96227384406     IErMin= 6 ErrMin= 1.03D-04
 ErrMax= 1.03D-04  0.00D+00 EMaxC= 1.00D-01 BMatC= 5.75D-05 BMatP= 9.13D-04
 IDIUse=3 WtCom= 9.99D-01 WtEn= 1.03D-03
 Coeff-Com: -0.172D-02 0.193D-02 0.295D-01 0.765D-01 0.245D+00 0.648D+00
 Coeff-En:   0.000D+00 0.000D+00 0.000D+00 0.000D+00 0.000D+00 0.100D+01
 Coeff:     -0.172D-02 0.193D-02 0.295D-01 0.764D-01 0.245D+00 0.649D+00
 Gap=     0.196 Goal=   None    Shift=    0.000
 RMSDP=8.87D-06 MaxDP=1.02D-03 DE=-8.16D-04 OVMax= 2.11D-03

 Cycle   7  Pass 0  IDiag  1:
 RMSU=  5.67D-06    CP:  9.74D-01  1.15D+00  7.77D-01  6.46D-01  6.80D-01
                    CP:  7.71D-01
 E= -3557.96233982381     Delta-E=       -0.000065979757 Rises=F Damp=F
 DIIS: error= 7.58D-05 at cycle   7 NSaved=   7.
 NSaved= 7 IEnMin= 7 EnMin= -3557.96233982381     IErMin= 7 ErrMin= 7.58D-05
 ErrMax= 7.58D-05  0.00D+00 EMaxC= 1.00D-01 BMatC= 1.04D-05 BMatP= 5.75D-05
 IDIUse=1 WtCom= 1.00D+00 WtEn= 0.00D+00
 Coeff-Com:  0.363D-03-0.177D-02-0.709D-03 0.437D-02 0.739D-01 0.353D+00
 Coeff-Com:  0.571D+00
 Coeff:      0.363D-03-0.177D-02-0.709D-03 0.437D-02 0.739D-01 0.353D+00
 Coeff:      0.571D+00
 Gap=     0.197 Goal=   None    Shift=    0.000
 RMSDP=3.43D-06 MaxDP=5.75D-04 DE=-6.60D-05 OVMax= 1.05D-03

 Initial convergence to 1.0D-05 achieved.  Increase integral accuracy.
 Cycle   8  Pass 1  IDiag  1:
 E= -3557.96217890678     Delta-E=        0.000160917039 Rises=F Damp=F
 DIIS: error= 3.32D-04 at cycle   1 NSaved=   1.
 NSaved= 1 IEnMin= 1 EnMin= -3557.96217890678     IErMin= 1 ErrMin= 3.32D-04
 ErrMax= 3.32D-04  0.00D+00 EMaxC= 1.00D-01 BMatC= 8.10D-05 BMatP= 8.10D-05
 IDIUse=3 WtCom= 9.97D-01 WtEn= 3.32D-03
 Coeff-Com:  0.100D+01
 Coeff-En:   0.100D+01
 Coeff:      0.100D+01
 Gap=     0.196 Goal=   None    Shift=    0.000
 RMSDP=3.43D-06 MaxDP=5.75D-04 DE= 1.61D-04 OVMax= 1.18D-03

 Cycle   9  Pass 1  IDiag  1:
 RMSU=  1.30D-04    CP:  1.00D+00
 E= -3557.96224477867     Delta-E=       -0.000065871895 Rises=F Damp=F
 DIIS: error= 7.01D-05 at cycle   2 NSaved=   2.
 NSaved= 2 IEnMin= 2 EnMin= -3557.96224477867     IErMin= 2 ErrMin= 7.01D-05
 ErrMax= 7.01D-05  0.00D+00 EMaxC= 1.00D-01 BMatC= 4.27D-06 BMatP= 8.10D-05
 IDIUse=1 WtCom= 1.00D+00 WtEn= 0.00D+00
 Coeff-Com:  0.537D-01 0.946D+00
 Coeff:      0.537D-01 0.946D+00
 Gap=     0.197 Goal=   None    Shift=    0.000
 RMSDP=5.21D-06 MaxDP=8.23D-04 DE=-6.59D-05 OVMax= 2.04D-03

 Cycle  10  Pass 1  IDiag  1:
 RMSU=  4.00D-06    CP:  1.00D+00  1.03D+00
 E= -3557.96223777696     Delta-E=        0.000007001714 Rises=F Damp=F
 DIIS: error= 1.29D-04 at cycle   3 NSaved=   3.
 NSaved= 3 IEnMin= 2 EnMin= -3557.96224477867     IErMin= 2 ErrMin= 7.01D-05
 ErrMax= 1.29D-04  0.00D+00 EMaxC= 1.00D-01 BMatC= 1.35D-05 BMatP= 4.27D-06
 IDIUse=3 WtCom= 4.68D-01 WtEn= 5.32D-01
 Coeff-Com: -0.145D-01 0.648D+00 0.366D+00
 Coeff-En:   0.000D+00 0.710D+00 0.290D+00
 Coeff:     -0.678D-02 0.681D+00 0.326D+00
 Gap=     0.197 Goal=   None    Shift=    0.000
 RMSDP=2.17D-06 MaxDP=4.83D-04 DE= 7.00D-06 OVMax= 1.22D-03

 Cycle  11  Pass 1  IDiag  1:
 RMSU=  7.12D-07    CP:  1.00D+00  1.03D+00  4.92D-01
 E= -3557.96224808601     Delta-E=       -0.000010309059 Rises=F Damp=F
 DIIS: error= 1.14D-05 at cycle   4 NSaved=   4.
 NSaved= 4 IEnMin= 4 EnMin= -3557.96224808601     IErMin= 4 ErrMin= 1.14D-05
 ErrMax= 1.14D-05  0.00D+00 EMaxC= 1.00D-01 BMatC= 1.55D-07 BMatP= 4.27D-06
 IDIUse=1 WtCom= 1.00D+00 WtEn= 0.00D+00
 Coeff-Com: -0.681D-02 0.274D+00 0.909D-01 0.642D+00
 Coeff:     -0.681D-02 0.274D+00 0.909D-01 0.642D+00
 Gap=     0.196 Goal=   None    Shift=    0.000
 RMSDP=3.27D-07 MaxDP=4.49D-05 DE=-1.03D-05 OVMax= 1.24D-04

 Cycle  12  Pass 1  IDiag  1:
 RMSU=  1.87D-07    CP:  1.00D+00  1.03D+00  4.28D-01  1.09D+00
 E= -3557.96224821476     Delta-E=       -0.000000128750 Rises=F Damp=F
 DIIS: error= 1.21D-06 at cycle   5 NSaved=   5.
 NSaved= 5 IEnMin= 5 EnMin= -3557.96224821476     IErMin= 5 ErrMin= 1.21D-06
 ErrMax= 1.21D-06  0.00D+00 EMaxC= 1.00D-01 BMatC= 4.52D-09 BMatP= 1.55D-07
 IDIUse=1 WtCom= 1.00D+00 WtEn= 0.00D+00
 Coeff-Com: -0.328D-03 0.115D-02-0.265D-01 0.288D+00 0.738D+00
 Coeff:     -0.328D-03 0.115D-02-0.265D-01 0.288D+00 0.738D+00
 Gap=     0.196 Goal=   None    Shift=    0.000
 RMSDP=9.55D-08 MaxDP=7.05D-06 DE=-1.29D-07 OVMax= 2.91D-05

 Cycle  13  Pass 1  IDiag  1:
 RMSU=  7.28D-08    CP:  1.00D+00  1.03D+00  4.34D-01  1.16D+00  8.35D-01
 E= -3557.96224821984     Delta-E=       -0.000000005075 Rises=F Damp=F
 DIIS: error= 4.27D-07 at cycle   6 NSaved=   6.
 NSaved= 6 IEnMin= 6 EnMin= -3557.96224821984     IErMin= 6 ErrMin= 4.27D-07
 ErrMax= 4.27D-07  0.00D+00 EMaxC= 1.00D-01 BMatC= 9.22D-10 BMatP= 4.52D-09
 IDIUse=1 WtCom= 1.00D+00 WtEn= 0.00D+00
 Coeff-Com:  0.907D-03-0.428D-01-0.280D-01 0.543D-01 0.382D+00 0.634D+00
 Coeff:      0.907D-03-0.428D-01-0.280D-01 0.543D-01 0.382D+00 0.634D+00
 Gap=     0.196 Goal=   None    Shift=    0.000
 RMSDP=3.97D-08 MaxDP=3.45D-06 DE=-5.07D-09 OVMax= 1.58D-05

 Cycle  14  Pass 1  IDiag  1:
 RMSU=  3.33D-08    CP:  1.00D+00  1.03D+00  4.34D-01  1.17D+00  9.22D-01
                    CP:  9.27D-01
 E= -3557.96224822120     Delta-E=       -0.000000001359 Rises=F Damp=F
 DIIS: error= 1.80D-07 at cycle   7 NSaved=   7.
 NSaved= 7 IEnMin= 7 EnMin= -3557.96224822120     IErMin= 7 ErrMin= 1.80D-07
 ErrMax= 1.80D-07  0.00D+00 EMaxC= 1.00D-01 BMatC= 8.24D-11 BMatP= 9.22D-10
 IDIUse=1 WtCom= 1.00D+00 WtEn= 0.00D+00
 Coeff-Com:  0.337D-03-0.143D-01-0.571D-02-0.163D-01 0.323D-01 0.217D+00
 Coeff-Com:  0.787D+00
 Coeff:      0.337D-03-0.143D-01-0.571D-02-0.163D-01 0.323D-01 0.217D+00
 Coeff:      0.787D+00
 Gap=     0.196 Goal=   None    Shift=    0.000
 RMSDP=1.68D-08 MaxDP=1.38D-06 DE=-1.36D-09 OVMax= 6.48D-06

 Cycle  15  Pass 1  IDiag  1:
 RMSU=  1.19D-08    CP:  1.00D+00  1.03D+00  4.35D-01  1.18D+00  9.25D-01
                    CP:  1.07D+00  1.10D+00
 E= -3557.96224822130     Delta-E=       -0.000000000102 Rises=F Damp=F
 DIIS: error= 1.08D-07 at cycle   8 NSaved=   8.
 NSaved= 8 IEnMin= 8 EnMin= -3557.96224822130     IErMin= 8 ErrMin= 1.08D-07
 ErrMax= 1.08D-07  0.00D+00 EMaxC= 1.00D-01 BMatC= 2.37D-11 BMatP= 8.24D-11
 IDIUse=1 WtCom= 1.00D+00 WtEn= 0.00D+00
 Coeff-Com: -0.803D-04 0.455D-02 0.488D-02-0.222D-01-0.883D-01-0.621D-01
 Coeff-Com:  0.389D+00 0.774D+00
 Coeff:     -0.803D-04 0.455D-02 0.488D-02-0.222D-01-0.883D-01-0.621D-01
 Coeff:      0.389D+00 0.774D+00
 Gap=     0.196 Goal=   None    Shift=    0.000
 RMSDP=9.50D-09 MaxDP=1.15D-06 DE=-1.02D-10 OVMax= 3.79D-06

 Cycle  16  Pass 1  IDiag  1:
 RMSU=  5.65D-09    CP:  1.00D+00  1.03D+00  4.35D-01  1.18D+00  9.35D-01
                    CP:  1.13D+00  1.28D+00  9.56D-01
 E= -3557.96224822134     Delta-E=       -0.000000000040 Rises=F Damp=F
 DIIS: error= 2.84D-08 at cycle   9 NSaved=   9.
 NSaved= 9 IEnMin= 9 EnMin= -3557.96224822134     IErMin= 9 ErrMin= 2.84D-08
 ErrMax= 2.84D-08  0.00D+00 EMaxC= 1.00D-01 BMatC= 3.33D-12 BMatP= 2.37D-11
 IDIUse=1 WtCom= 1.00D+00 WtEn= 0.00D+00
 Coeff-Com: -0.767D-04 0.377D-02 0.287D-02-0.779D-02-0.434D-01-0.545D-01
 Coeff-Com:  0.814D-01 0.345D+00 0.673D+00
 Coeff:     -0.767D-04 0.377D-02 0.287D-02-0.779D-02-0.434D-01-0.545D-01
 Coeff:      0.814D-01 0.345D+00 0.673D+00
 Gap=     0.196 Goal=   None    Shift=    0.000
 RMSDP=3.22D-09 MaxDP=4.54D-07 DE=-4.00D-11 OVMax= 1.34D-06

 SCF Done:  E(RM062X) =  -3557.96224822     A.U. after   16 cycles
            NFock= 16  Conv=0.32D-08     -V/T= 2.0077
 KE= 3.530873545277D+03 PE=-3.292488787103D+04 EE= 1.353566505098D+04
 Leave Link  502 at Sat Nov 12 15:43:40 2022, MaxMem=  8053063680 cpu:            7170.3 elap:             449.0
 (Enter /project/chenjingdan/g16/l801.exe)
 DoSCS=F DFT=T ScalE2(SS,OS)=  1.000000  1.000000
 Range of M.O.s used for correlation:     1  1224
 NBasis=  1224 NAE=   244 NBE=   244 NFC=     0 NFV=     0
 NROrb=   1224 NOA=   244 NOB=   244 NVA=   980 NVB=   980
 Leave Link  801 at Sat Nov 12 15:43:40 2022, MaxMem=  8053063680 cpu:               0.7 elap:               0.1
 (Enter /project/chenjingdan/g16/l1101.exe)
 Using compressed storage, NAtomX=   112.
 Will process    113 centers per pass.
 Leave Link 1101 at Sat Nov 12 15:43:47 2022, MaxMem=  8053063680 cpu:             106.1 elap:               6.8
 (Enter /project/chenjingdan/g16/l1102.exe)
 Symmetrizing basis deriv contribution to polar:
 IMax=3 JMax=2 DiffMx= 0.00D+00
 Leave Link 1102 at Sat Nov 12 15:43:49 2022, MaxMem=  8053063680 cpu:               2.9 elap:               0.3
 (Enter /project/chenjingdan/g16/l1110.exe)
 Forming Gx(P) for the SCF density, NAtomX=   112.
 Integral derivatives from FoFJK, PRISM(SPDF).
 Do as many integral derivatives as possible in FoFJK.
 G2DrvN: MDV=    8053052008.
 G2DrvN: will do   113 centers at a time, making    1 passes.
 Calling FoFCou, ICntrl=  3107 FMM=T I1Cent=   0 AccDes= 0.00D+00.
 FoFJK:  IHMeth= 1 ICntrl=    3107 DoSepK=F KAlg= 0 I1Cent=           0 FoldK=F
 IRaf=         0 NMat=       1 IRICut=       1 DoRegI=T DoRafI=F ISym2E= 0 IDoP0=0 IntGTp=1.
 FoFCou: FMM=T IPFlag=           0 FMFlag=      100000 FMFlg1=        2001
         NFxFlg=           0 DoJE=F BraDBF=F KetDBF=F FulRan=T
         wScrn=  0.000000 ICntrl=      3107 IOpCl=  0 I1Cent=           0 NGrid=           0
         NMat0=    1 NMatS0=      1 NMatT0=    0 NMatD0=    1 NMtDS0=    0 NMtDT0=    0
 Symmetry not used in FoFCou.
 FMM levels:  10  Number of levels for PrismC:   9
 End of G2Drv F.D. properties file   721 does not exist.
 End of G2Drv F.D. properties file   722 does not exist.
 End of G2Drv F.D. properties file   788 does not exist.
 Leave Link 1110 at Sat Nov 12 16:24:51 2022, MaxMem=  8053063680 cpu:           39383.5 elap:            2461.7
 (Enter /project/chenjingdan/g16/l1002.exe)
 Minotr:  Closed shell wavefunction.
          IDoAtm=11111111111111111111111111111111111111111111111111
          IDoAtm=11111111111111111111111111111111111111111111111111
          IDoAtm=111111111111
          Direct CPHF calculation.
          Differentiating once with respect to nuclear coordinates.
          Requested convergence is 1.0D-08 RMS, and 1.0D-07 maximum.
          Secondary convergence is 1.0D-12 RMS, and 1.0D-12 maximum.
          NewPWx=T KeepS1=F KeepF1=F KeepIn=T MapXYZ=F SortEE=F KeepMc=T.
        34077 words used for storage of precomputed grid.
 Two-electron integral symmetry not used.
          MDV=    8053063680 using IRadAn=       1.
          Solving linear equations simultaneously, MaxMat=      72.
 FoF2E skips out because all densities are zero.
 CalDSu exits because no D1Ps are significant.
 FoFJK:  IHMeth= 1 ICntrl=       0 DoSepK=F KAlg= 0 I1Cent=           0 FoldK=F
 IRaf= 660000000 NMat=      72 IRICut=       1 DoRegI=T DoRafI=F ISym2E= 0 IDoP0=0 IntGTp=1.
 FoFCou: FMM=T IPFlag=           0 FMFlag=      100000 FMFlg1=        2001
         NFxFlg=           0 DoJE=F BraDBF=F KetDBF=F FulRan=T
         wScrn=  0.000000 ICntrl=         0 IOpCl=  0 I1Cent=           0 NGrid=           0
         NMat0=   72 NMatS0=     72 NMatT0=    0 NMatD0=   72 NMtDS0=    0 NMtDT0=    0
 Symmetry not used in FoFCou.
 FMM levels:  10  Number of levels for PrismC:   9
          There are   339 degrees of freedom in the 1st order CPHF.  IDoFFX=6 NUNeed=     0.
    333 vectors produced by pass  0 Test12= 2.39D-13 1.00D-09 XBig12= 1.83D-01 1.01D-01.
 AX will form    72 AO Fock derivatives at one time.
    333 vectors produced by pass  1 Test12= 2.39D-13 1.00D-09 XBig12= 8.11D-02 1.34D-01.
    333 vectors produced by pass  2 Test12= 2.39D-13 1.00D-09 XBig12= 2.51D-03 7.16D-03.
    333 vectors produced by pass  3 Test12= 2.39D-13 1.00D-09 XBig12= 2.85D-05 3.94D-04.
    333 vectors produced by pass  4 Test12= 2.39D-13 1.00D-09 XBig12= 2.77D-07 4.24D-05.
    333 vectors produced by pass  5 Test12= 2.39D-13 1.00D-09 XBig12= 1.09D-09 2.06D-06.
    211 vectors produced by pass  6 Test12= 2.39D-13 1.00D-09 XBig12= 3.57D-12 1.23D-07.
     13 vectors produced by pass  7 Test12= 2.39D-13 1.00D-09 XBig12= 1.01D-14 6.05D-09.
 InvSVY:  IOpt=1 It=  1 EMax= 8.33D-16
 Solved reduced A of dimension  2222 with   339 vectors.
 End of Minotr F.D. properties file   721 does not exist.
 End of Minotr F.D. properties file   722 does not exist.
 End of Minotr F.D. properties file   788 does not exist.
 Leave Link 1002 at Sat Nov 12 18:39:43 2022, MaxMem=  8053063680 cpu:          129434.8 elap:            8091.1
 (Enter /project/chenjingdan/g16/l601.exe)
 Copying SCF densities to generalized density rwf, IOpCl= 0 IROHF=0.
 Hyperfine terms turned off by default for NAtoms > 100.

 **********************************************************************

            Population analysis using the SCF Density.

 **********************************************************************

 Alpha  occ. eigenvalues --  -78.21470 -25.30703 -25.30666 -25.30488 -25.28641
 Alpha  occ. eigenvalues --  -25.28413 -19.71092 -19.70203 -19.69193 -19.68598
 Alpha  occ. eigenvalues --  -19.68312 -19.67901 -19.67650 -19.65549 -19.64517
 Alpha  occ. eigenvalues --  -19.62066 -15.01601 -14.83238 -10.81766 -10.74414
 Alpha  occ. eigenvalues --  -10.71182 -10.70377 -10.66484 -10.63270 -10.63242
 Alpha  occ. eigenvalues --  -10.61851 -10.61607 -10.60960 -10.59762 -10.59125
 Alpha  occ. eigenvalues --  -10.58910 -10.57965 -10.57622 -10.56152 -10.56098
 Alpha  occ. eigenvalues --  -10.55984 -10.55869 -10.55757 -10.55647 -10.55545
 Alpha  occ. eigenvalues --  -10.55431 -10.55405 -10.55392 -10.55291 -10.55256
 Alpha  occ. eigenvalues --  -10.55248 -10.55222 -10.55207 -10.55204 -10.55156
 Alpha  occ. eigenvalues --  -10.55124 -10.55101 -10.55058 -10.55035 -10.55010
 Alpha  occ. eigenvalues --  -10.54871 -10.54100 -10.53793 -10.53687 -10.53612
 Alpha  occ. eigenvalues --  -10.53609 -10.53482 -10.53431 -10.53082 -10.52977
 Alpha  occ. eigenvalues --  -10.52928  -6.99473  -5.11285  -5.11212  -5.11154
 Alpha  occ. eigenvalues --   -1.48049  -1.42094  -1.38586  -1.38474  -1.36942
 Alpha  occ. eigenvalues --   -1.35843  -1.25733  -1.23552  -1.23503  -1.23436
 Alpha  occ. eigenvalues --   -1.18239  -1.18059  -1.14997  -1.13860  -1.09345
 Alpha  occ. eigenvalues --   -1.08312  -1.01424  -1.00015  -0.97677  -0.96626
 Alpha  occ. eigenvalues --   -0.95842  -0.94131  -0.93163  -0.92576  -0.90599
 Alpha  occ. eigenvalues --   -0.89109  -0.88314  -0.87946  -0.87271  -0.87208
 Alpha  occ. eigenvalues --   -0.87106  -0.85858  -0.84107  -0.83992  -0.82610
 Alpha  occ. eigenvalues --   -0.82177  -0.81929  -0.79414  -0.78566  -0.78493
 Alpha  occ. eigenvalues --   -0.77652  -0.77282  -0.76307  -0.76212  -0.75999
 Alpha  occ. eigenvalues --   -0.75954  -0.75524  -0.73163  -0.72854  -0.71730
 Alpha  occ. eigenvalues --   -0.71628  -0.71085  -0.70644  -0.70066  -0.69821
 Alpha  occ. eigenvalues --   -0.69218  -0.68557  -0.67551  -0.67473  -0.67041
 Alpha  occ. eigenvalues --   -0.65826  -0.65716  -0.64616  -0.64575  -0.64321
 Alpha  occ. eigenvalues --   -0.63971  -0.63615  -0.63267  -0.62629  -0.62419
 Alpha  occ. eigenvalues --   -0.61526  -0.60792  -0.60397  -0.60021  -0.59397
 Alpha  occ. eigenvalues --   -0.58685  -0.57982  -0.57883  -0.57664  -0.57469
 Alpha  occ. eigenvalues --   -0.57378  -0.57251  -0.56807  -0.56605  -0.55953
 Alpha  occ. eigenvalues --   -0.55395  -0.55248  -0.55168  -0.54941  -0.54724
 Alpha  occ. eigenvalues --   -0.54467  -0.54051  -0.53632  -0.53514  -0.53176
 Alpha  occ. eigenvalues --   -0.53066  -0.52778  -0.52292  -0.51837  -0.51482
 Alpha  occ. eigenvalues --   -0.51354  -0.50940  -0.50777  -0.50430  -0.49807
 Alpha  occ. eigenvalues --   -0.49716  -0.49337  -0.49107  -0.48822  -0.48696
 Alpha  occ. eigenvalues --   -0.48642  -0.48355  -0.48130  -0.47872  -0.47553
 Alpha  occ. eigenvalues --   -0.47435  -0.47161  -0.46877  -0.46669  -0.46620
 Alpha  occ. eigenvalues --   -0.46344  -0.46119  -0.46021  -0.45797  -0.45630
 Alpha  occ. eigenvalues --   -0.45607  -0.45442  -0.45179  -0.45100  -0.44983
 Alpha  occ. eigenvalues --   -0.44819  -0.44726  -0.44121  -0.43749  -0.43477
 Alpha  occ. eigenvalues --   -0.43164  -0.42765  -0.42228  -0.42081  -0.41871
 Alpha  occ. eigenvalues --   -0.41701  -0.41667  -0.41491  -0.41038  -0.40966
 Alpha  occ. eigenvalues --   -0.40305  -0.39890  -0.39700  -0.39445  -0.39118
 Alpha  occ. eigenvalues --   -0.38929  -0.38712  -0.38610  -0.38567  -0.38317
 Alpha  occ. eigenvalues --   -0.38052  -0.37964  -0.37687  -0.37644  -0.37307
 Alpha  occ. eigenvalues --   -0.37134  -0.36920  -0.36821  -0.34700  -0.31570
 Alpha  occ. eigenvalues --   -0.30336  -0.30306  -0.29864  -0.28538  -0.28306
 Alpha  occ. eigenvalues --   -0.28008  -0.27861  -0.26947  -0.26463
 Alpha virt. eigenvalues --   -0.06813  -0.00335   0.00120   0.01247   0.01508
 Alpha virt. eigenvalues --    0.02416   0.02845   0.03794   0.04398   0.04440
 Alpha virt. eigenvalues --    0.05205   0.05602   0.07279   0.09132   0.10001
 Alpha virt. eigenvalues --    0.11203   0.12088   0.12739   0.13278   0.13614
 Alpha virt. eigenvalues --    0.13880   0.14003   0.14529   0.14855   0.15093
 Alpha virt. eigenvalues --    0.15650   0.15931   0.16337   0.16375   0.16579
 Alpha virt. eigenvalues --    0.16875   0.17206   0.17258   0.17418   0.17793
 Alpha virt. eigenvalues --    0.17909   0.18287   0.18469   0.18593   0.18857
 Alpha virt. eigenvalues --    0.18989   0.19273   0.19474   0.19752   0.19988
 Alpha virt. eigenvalues --    0.20261   0.20615   0.20670   0.21035   0.21081
 Alpha virt. eigenvalues --    0.21239   0.21594   0.21954   0.22165   0.22513
 Alpha virt. eigenvalues --    0.22749   0.22859   0.23036   0.23372   0.23637
 Alpha virt. eigenvalues --    0.23810   0.24257   0.24363   0.24384   0.24543
 Alpha virt. eigenvalues --    0.24870   0.25106   0.25413   0.25551   0.26001
 Alpha virt. eigenvalues --    0.26382   0.26612   0.26981   0.27169   0.27398
 Alpha virt. eigenvalues --    0.27945   0.28007   0.28088   0.28812   0.28903
 Alpha virt. eigenvalues --    0.29134   0.29174   0.29486   0.29824   0.29847
 Alpha virt. eigenvalues --    0.30179   0.30631   0.30868   0.31160   0.31207
 Alpha virt. eigenvalues --    0.31553   0.31674   0.31766   0.32202   0.32439
 Alpha virt. eigenvalues --    0.32811   0.33161   0.33546   0.33701   0.34192
 Alpha virt. eigenvalues --    0.34383   0.35642   0.36030   0.36915   0.37295
 Alpha virt. eigenvalues --    0.37584   0.38142   0.38233   0.39423   0.39689
 Alpha virt. eigenvalues --    0.40164   0.40326   0.41092   0.41354   0.41632
 Alpha virt. eigenvalues --    0.41845   0.42012   0.42532   0.42653   0.42761
 Alpha virt. eigenvalues --    0.43479   0.43641   0.44472   0.44751   0.45525
 Alpha virt. eigenvalues --    0.45908   0.46048   0.46663   0.46863   0.47748
 Alpha virt. eigenvalues --    0.49681   0.49860   0.50341   0.51117   0.51665
 Alpha virt. eigenvalues --    0.52314   0.52734   0.52992   0.53393   0.53499
 Alpha virt. eigenvalues --    0.53958   0.54146   0.54393   0.54844   0.55410
 Alpha virt. eigenvalues --    0.55527   0.55684   0.56118   0.56251   0.56551
 Alpha virt. eigenvalues --    0.56993   0.57088   0.57258   0.57368   0.57659
 Alpha virt. eigenvalues --    0.58321   0.58563   0.58730   0.59069   0.59144
 Alpha virt. eigenvalues --    0.59401   0.59501   0.59803   0.60122   0.60280
 Alpha virt. eigenvalues --    0.60356   0.60600   0.60806   0.61201   0.61398
 Alpha virt. eigenvalues --    0.61559   0.61754   0.62074   0.62275   0.62501
 Alpha virt. eigenvalues --    0.62782   0.62872   0.62970   0.63419   0.63482
 Alpha virt. eigenvalues --    0.64006   0.64170   0.64681   0.64771   0.64863
 Alpha virt. eigenvalues --    0.65071   0.65528   0.65652   0.65810   0.66288
 Alpha virt. eigenvalues --    0.66655   0.66964   0.67027   0.67244   0.67599
 Alpha virt. eigenvalues --    0.67781   0.68325   0.68652   0.69098   0.69255
 Alpha virt. eigenvalues --    0.69714   0.69880   0.70399   0.70702   0.71134
 Alpha virt. eigenvalues --    0.71480   0.71776   0.71872   0.72337   0.72759
 Alpha virt. eigenvalues --    0.73117   0.73363   0.74006   0.74482   0.74653
 Alpha virt. eigenvalues --    0.75070   0.75221   0.75914   0.76534   0.76907
 Alpha virt. eigenvalues --    0.77221   0.77454   0.77809   0.77916   0.78453
 Alpha virt. eigenvalues --    0.78763   0.79110   0.79294   0.79588   0.79837
 Alpha virt. eigenvalues --    0.79970   0.80645   0.80887   0.80957   0.81530
 Alpha virt. eigenvalues --    0.81599   0.82094   0.82327   0.82665   0.83002
 Alpha virt. eigenvalues --    0.83168   0.83349   0.84054   0.84163   0.84456
 Alpha virt. eigenvalues --    0.84625   0.84729   0.85501   0.85632   0.85882
 Alpha virt. eigenvalues --    0.86350   0.86837   0.86985   0.87252   0.87382
 Alpha virt. eigenvalues --    0.87557   0.87970   0.88058   0.88617   0.88945
 Alpha virt. eigenvalues --    0.89004   0.89428   0.89559   0.89938   0.90063
 Alpha virt. eigenvalues --    0.90233   0.90475   0.90694   0.90986   0.91256
 Alpha virt. eigenvalues --    0.91604   0.91777   0.92232   0.92677   0.92975
 Alpha virt. eigenvalues --    0.93331   0.93561   0.93766   0.93979   0.94146
 Alpha virt. eigenvalues --    0.94493   0.94985   0.95079   0.95328   0.95404
 Alpha virt. eigenvalues --    0.95842   0.96128   0.96365   0.96517   0.96658
 Alpha virt. eigenvalues --    0.97302   0.97383   0.97668   0.97893   0.98346
 Alpha virt. eigenvalues --    0.98501   0.98602   0.99094   0.99354   0.99576
 Alpha virt. eigenvalues --    0.99723   1.00636   1.00881   1.01400   1.01506
 Alpha virt. eigenvalues --    1.01866   1.02309   1.02547   1.02678   1.03016
 Alpha virt. eigenvalues --    1.03106   1.03939   1.04012   1.04394   1.04849
 Alpha virt. eigenvalues --    1.05039   1.05188   1.05430   1.05898   1.06440
 Alpha virt. eigenvalues --    1.06736   1.07158   1.07304   1.07944   1.08539
 Alpha virt. eigenvalues --    1.08784   1.09074   1.09591   1.09997   1.10248
 Alpha virt. eigenvalues --    1.10487   1.10752   1.11167   1.11502   1.11746
 Alpha virt. eigenvalues --    1.12076   1.12150   1.12529   1.12947   1.13557
 Alpha virt. eigenvalues --    1.14150   1.14471   1.14690   1.15099   1.15462
 Alpha virt. eigenvalues --    1.16041   1.16503   1.16654   1.17469   1.17729
 Alpha virt. eigenvalues --    1.18207   1.18506   1.18823   1.19215   1.19557
 Alpha virt. eigenvalues --    1.19892   1.20143   1.20235   1.20674   1.20901
 Alpha virt. eigenvalues --    1.21737   1.21994   1.22227   1.22666   1.23400
 Alpha virt. eigenvalues --    1.23845   1.24571   1.25137   1.25446   1.26131
 Alpha virt. eigenvalues --    1.26395   1.26691   1.27293   1.27375   1.27793
 Alpha virt. eigenvalues --    1.28293   1.28746   1.29262   1.29453   1.29678
 Alpha virt. eigenvalues --    1.29896   1.30375   1.30942   1.31060   1.31502
 Alpha virt. eigenvalues --    1.31965   1.32508   1.33022   1.33479   1.33857
 Alpha virt. eigenvalues --    1.34061   1.34446   1.34900   1.35207   1.35709
 Alpha virt. eigenvalues --    1.36391   1.37007   1.37281   1.37726   1.37810
 Alpha virt. eigenvalues --    1.38049   1.39256   1.39499   1.39592   1.39840
 Alpha virt. eigenvalues --    1.40230   1.40556   1.40679   1.40837   1.41020
 Alpha virt. eigenvalues --    1.41598   1.41667   1.41976   1.42467   1.42632
 Alpha virt. eigenvalues --    1.42891   1.43334   1.43648   1.44220   1.44435
 Alpha virt. eigenvalues --    1.44611   1.44713   1.45114   1.45405   1.45709
 Alpha virt. eigenvalues --    1.46164   1.46258   1.46516   1.47419   1.47860
 Alpha virt. eigenvalues --    1.48140   1.48338   1.48805   1.49092   1.49260
 Alpha virt. eigenvalues --    1.49659   1.50079   1.50437   1.50669   1.51080
 Alpha virt. eigenvalues --    1.51409   1.52140   1.53100   1.53598   1.53781
 Alpha virt. eigenvalues --    1.54593   1.54830   1.55102   1.55293   1.56507
 Alpha virt. eigenvalues --    1.57096   1.57777   1.58358   1.59173   1.59478
 Alpha virt. eigenvalues --    1.60112   1.61006   1.61314   1.62241   1.62801
 Alpha virt. eigenvalues --    1.63568   1.64119   1.64497   1.64919   1.65579
 Alpha virt. eigenvalues --    1.65892   1.67173   1.67578   1.67914   1.68555
 Alpha virt. eigenvalues --    1.69362   1.69750   1.70541   1.70899   1.71517
 Alpha virt. eigenvalues --    1.72021   1.72502   1.73464   1.73992   1.74217
 Alpha virt. eigenvalues --    1.74448   1.75297   1.75355   1.75525   1.75799
 Alpha virt. eigenvalues --    1.76056   1.76569   1.77054   1.77694   1.77845
 Alpha virt. eigenvalues --    1.78044   1.78397   1.78722   1.78909   1.79574
 Alpha virt. eigenvalues --    1.79900   1.80137   1.80294   1.80391   1.80593
 Alpha virt. eigenvalues --    1.80929   1.81238   1.81556   1.81652   1.81988
 Alpha virt. eigenvalues --    1.82447   1.82567   1.82715   1.82850   1.83014
 Alpha virt. eigenvalues --    1.83589   1.83661   1.83885   1.84108   1.84534
 Alpha virt. eigenvalues --    1.85254   1.85323   1.85587   1.85975   1.86009
 Alpha virt. eigenvalues --    1.86204   1.86820   1.86934   1.87179   1.87301
 Alpha virt. eigenvalues --    1.87645   1.87710   1.88026   1.88184   1.88788
 Alpha virt. eigenvalues --    1.88833   1.89423   1.89732   1.89898   1.90027
 Alpha virt. eigenvalues --    1.90415   1.90606   1.90851   1.91327   1.91455
 Alpha virt. eigenvalues --    1.91786   1.91943   1.92445   1.92937   1.93063
 Alpha virt. eigenvalues --    1.93463   1.93951   1.94265   1.94596   1.94668
 Alpha virt. eigenvalues --    1.94975   1.95625   1.96210   1.96487   1.96808
 Alpha virt. eigenvalues --    1.97163   1.97669   1.97721   1.98208   1.98673
 Alpha virt. eigenvalues --    1.99135   1.99496   1.99964   2.00325   2.00725
 Alpha virt. eigenvalues --    2.00945   2.00975   2.01275   2.01864   2.02530
 Alpha virt. eigenvalues --    2.02824   2.03369   2.03677   2.03976   2.04153
 Alpha virt. eigenvalues --    2.04303   2.04747   2.05040   2.05527   2.05744
 Alpha virt. eigenvalues --    2.06099   2.06140   2.06826   2.07076   2.07118
 Alpha virt. eigenvalues --    2.07353   2.07420   2.08100   2.08272   2.08485
 Alpha virt. eigenvalues --    2.08791   2.09016   2.09247   2.09572   2.09636
 Alpha virt. eigenvalues --    2.09882   2.10301   2.10691   2.11148   2.11307
 Alpha virt. eigenvalues --    2.11365   2.11588   2.11885   2.11953   2.12265
 Alpha virt. eigenvalues --    2.12594   2.12872   2.13182   2.13317   2.13735
 Alpha virt. eigenvalues --    2.14161   2.14428   2.14838   2.15004   2.15253
 Alpha virt. eigenvalues --    2.15545   2.15743   2.15991   2.16340   2.16897
 Alpha virt. eigenvalues --    2.16969   2.17083   2.17241   2.17478   2.17836
 Alpha virt. eigenvalues --    2.18209   2.18494   2.18777   2.18866   2.19485
 Alpha virt. eigenvalues --    2.19924   2.20099   2.20473   2.20638   2.20936
 Alpha virt. eigenvalues --    2.21222   2.21727   2.22189   2.22759   2.22866
 Alpha virt. eigenvalues --    2.23612   2.23701   2.24507   2.24704   2.25345
 Alpha virt. eigenvalues --    2.25374   2.25810   2.25940   2.26742   2.27058
 Alpha virt. eigenvalues --    2.27319   2.27857   2.28116   2.28405   2.28958
 Alpha virt. eigenvalues --    2.29826   2.30004   2.30113   2.30255   2.31049
 Alpha virt. eigenvalues --    2.31584   2.31926   2.32297   2.32595   2.32855
 Alpha virt. eigenvalues --    2.33222   2.34003   2.34630   2.35057   2.35326
 Alpha virt. eigenvalues --    2.35513   2.35861   2.36278   2.36524   2.36843
 Alpha virt. eigenvalues --    2.37090   2.38537   2.38872   2.39298   2.39947
 Alpha virt. eigenvalues --    2.40096   2.40388   2.40511   2.41144   2.41263
 Alpha virt. eigenvalues --    2.41667   2.41858   2.42099   2.42266   2.42286
 Alpha virt. eigenvalues --    2.42861   2.43030   2.43537   2.43906   2.44246
 Alpha virt. eigenvalues --    2.44671   2.44909   2.45589   2.46098   2.46372
 Alpha virt. eigenvalues --    2.46751   2.47095   2.47265   2.47403   2.48210
 Alpha virt. eigenvalues --    2.48504   2.48954   2.49277   2.49397   2.49709
 Alpha virt. eigenvalues --    2.49794   2.50450   2.51119   2.51641   2.52149
 Alpha virt. eigenvalues --    2.52418   2.52672   2.53120   2.53298   2.54250
 Alpha virt. eigenvalues --    2.54470   2.54897   2.55270   2.55921   2.56026
 Alpha virt. eigenvalues --    2.56525   2.56965   2.57767   2.58404   2.59075
 Alpha virt. eigenvalues --    2.59334   2.59722   2.60129   2.60323   2.60447
 Alpha virt. eigenvalues --    2.61041   2.61522   2.61820   2.61896   2.62052
 Alpha virt. eigenvalues --    2.62650   2.62803   2.63185   2.63561   2.64439
 Alpha virt. eigenvalues --    2.64737   2.64848   2.65730   2.65800   2.66071
 Alpha virt. eigenvalues --    2.66589   2.66952   2.67229   2.67584   2.67974
 Alpha virt. eigenvalues --    2.68324   2.68689   2.69026   2.69148   2.69423
 Alpha virt. eigenvalues --    2.69803   2.70477   2.70571   2.71129   2.71511
 Alpha virt. eigenvalues --    2.71905   2.72006   2.72366   2.72670   2.73320
 Alpha virt. eigenvalues --    2.73656   2.74065   2.74391   2.74767   2.74900
 Alpha virt. eigenvalues --    2.75179   2.75737   2.76068   2.76276   2.77111
 Alpha virt. eigenvalues --    2.77777   2.77899   2.78573   2.79019   2.79258
 Alpha virt. eigenvalues --    2.79852   2.80768   2.81104   2.81512   2.81830
 Alpha virt. eigenvalues --    2.82078   2.82256   2.82785   2.82901   2.83162
 Alpha virt. eigenvalues --    2.83749   2.83859   2.84097   2.84617   2.85398
 Alpha virt. eigenvalues --    2.85689   2.86530   2.86719   2.86994   2.87132
 Alpha virt. eigenvalues --    2.87606   2.87856   2.88161   2.88393   2.88894
 Alpha virt. eigenvalues --    2.89102   2.89458   2.89691   2.90121   2.90472
 Alpha virt. eigenvalues --    2.90652   2.91322   2.91412   2.92013   2.92306
 Alpha virt. eigenvalues --    2.92733   2.93741   2.94066   2.94791   2.95260
 Alpha virt. eigenvalues --    2.95493   2.95722   2.96035   2.97091   2.97793
 Alpha virt. eigenvalues --    2.99494   3.01052   3.01638   3.01825   3.02506
 Alpha virt. eigenvalues --    3.04365   3.04766   3.05636   3.07208   3.07966
 Alpha virt. eigenvalues --    3.08964   3.09280   3.09575   3.09779   3.10499
 Alpha virt. eigenvalues --    3.11129   3.12658   3.13186   3.13567   3.14142
 Alpha virt. eigenvalues --    3.15070   3.15543   3.17718   3.17848   3.18565
 Alpha virt. eigenvalues --    3.18869   3.20058   3.20846   3.20996   3.21725
 Alpha virt. eigenvalues --    3.22286   3.22400   3.22545   3.22768   3.24193
 Alpha virt. eigenvalues --    3.24422   3.24889   3.25692   3.26462   3.27253
 Alpha virt. eigenvalues --    3.27463   3.27902   3.29555   3.29801   3.30181
 Alpha virt. eigenvalues --    3.30809   3.31041   3.31480   3.32404   3.32787
 Alpha virt. eigenvalues --    3.34015   3.37622   3.38123   3.40385   3.40518
 Alpha virt. eigenvalues --    3.40663   3.42320   3.43811   3.44517   3.44651
 Alpha virt. eigenvalues --    3.45033   3.45490   3.45835   3.45997   3.46224
 Alpha virt. eigenvalues --    3.46400   3.46769   3.47343   3.47490   3.47873
 Alpha virt. eigenvalues --    3.48227   3.48813   3.49413   3.49617   3.50651
 Alpha virt. eigenvalues --    3.51518   3.52542   3.58954   3.60774   3.64797
 Alpha virt. eigenvalues --    3.68677   3.68886   3.73567   3.74063   3.74616
 Alpha virt. eigenvalues --    3.78160   3.91204   3.92451   4.01596   4.05375
 Alpha virt. eigenvalues --    4.12906   4.13489   4.17586   4.18093   4.19480
 Alpha virt. eigenvalues --    4.19860   4.20292   4.21034   4.22476   4.22740
 Alpha virt. eigenvalues --    4.23265   4.24855   4.25722   4.26187   4.26411
 Alpha virt. eigenvalues --    4.28080   4.29824   4.31301   4.35209   4.36928
 Alpha virt. eigenvalues --    4.37924   4.39327   4.39842   4.40870   4.41649
 Alpha virt. eigenvalues --    4.42245   4.43783   4.45014   4.46191   4.47344
 Alpha virt. eigenvalues --    4.48457   4.50529   4.51886   4.52566   4.54198
 Alpha virt. eigenvalues --    4.55319   4.55829   4.58457   4.59233   4.61193
 Alpha virt. eigenvalues --    4.62074   4.63364   4.64654   4.65899   4.67532
 Alpha virt. eigenvalues --    4.67882   4.73590   4.75756   4.80871   4.84035
 Alpha virt. eigenvalues --    4.86197   4.87571   4.89931   4.92115   4.96741
 Alpha virt. eigenvalues --    4.99373   5.00882   5.34458   5.49689   5.82247
          Condensed to atoms (all electrons):
 Mulliken charges:
               1
     1  O   -0.516225
     2  N   -0.560298
     3  O   -0.624034
     4  O   -0.583981
     5  C   -0.311672
     6  N    0.392493
     7  C    0.180863
     8  C    0.648446
     9  C    0.038392
    10  C   -0.206793
    11  C    0.625729
    12  C   -0.170101
    13  C   -0.110148
    14  C   -0.146385
    15  C    0.373253
    16  O   -0.398685
    17  O   -0.367688
    18  H    0.357636
    19  H    0.371116
    20  H    0.451655
    21  H    0.140100
    22  H    0.148303
    23  H    0.123797
    24  H    0.166203
    25  H    0.170587
    26  O   -0.638605
    27  O   -0.623625
    28  C   -0.402819
    29  O   -0.626010
    30  C   -0.394856
    31  C   -0.407789
    32  O   -0.663398
    33  C   -0.395748
    34  C   -0.413401
    35  C   -0.381100
    36  C   -0.195072
    37  C    0.131499
    38  C   -0.145788
    39  C   -0.183595
    40  C    0.081988
    41  C    0.140835
    42  C   -0.039231
    43  C    0.215996
    44  C   -0.148678
    45  C    0.080399
    46  C   -0.211293
    47  C    0.105990
    48  C    0.027830
    49  C   -0.157052
    50  C   -0.006213
    51  C    0.216723
    52  C   -0.265596
    53  C    0.003900
    54  C   -0.146840
    55  C   -0.055356
    56  C    0.024175
    57  C   -0.202118
    58  C   -0.144563
    59  C    0.105137
    60  C   -0.203088
    61  C    0.100843
    62  C    0.099967
    63  C   -0.208228
    64  C   -0.266364
    65  P    1.312728
    66  H    0.395146
    67  H    0.140714
    68  H    0.146147
    69  H    0.105421
    70  H    0.123780
    71  H    0.127120
    72  H    0.158185
    73  H    0.128858
    74  H    0.136082
    75  H    0.137336
    76  H    0.116575
    77  H    0.127416
    78  H    0.163724
    79  H    0.157900
    80  H    0.120722
    81  H    0.135566
    82  H    0.141280
    83  H    0.120293
    84  H    0.100798
    85  H    0.084507
    86  H    0.122861
    87  H    0.102346
    88  H    0.137231
    89  H    0.116432
    90  H    0.126288
    91  H    0.137069
    92  H    0.134694
    93  H    0.120672
    94  H    0.099207
    95  H    0.127468
    96  H    0.096580
    97  H    0.116546
    98  H    0.131662
    99  H    0.140182
   100  H    0.133992
   101  H    0.185051
   102  O   -0.533970
   103  C   -0.037088
   104  H    0.185566
   105  H    0.164477
   106  C    0.518032
   107  C    0.813625
   108  F   -0.282199
   109  F   -0.277127
   110  F   -0.238951
   111  F   -0.262775
   112  F   -0.259590
 Sum of Mulliken charges =  -0.00000
 Mulliken charges with hydrogens summed into heavy atoms:
               1
     1  O   -0.158589
     2  N   -0.189182
     3  O   -0.624034
     4  O   -0.132326
     5  C    0.100527
     6  N    0.392493
     7  C    0.180863
     8  C    0.648446
     9  C    0.038392
    10  C   -0.206793
    11  C    0.625729
    12  C   -0.003897
    13  C    0.074903
    14  C    0.024201
    15  C    0.373253
    16  O   -0.398685
    17  O   -0.367688
    26  O   -0.243459
    27  O   -0.623625
    28  C   -0.010537
    29  O   -0.626010
    30  C    0.014229
    31  C   -0.005513
    32  O   -0.663398
    33  C    0.011968
    34  C    0.000788
    35  C   -0.018729
    36  C   -0.110564
    37  C    0.131499
    38  C   -0.022927
    39  C   -0.081249
    40  C    0.081988
    41  C    0.140835
    42  C   -0.039231
    43  C    0.215996
    44  C   -0.148678
    45  C    0.080399
    46  C    0.042370
    47  C    0.105990
    48  C    0.027830
    49  C   -0.030763
    50  C   -0.006213
    51  C    0.216723
    52  C    0.006167
    53  C    0.003900
    54  C   -0.026167
    55  C   -0.055356
    56  C    0.024175
    57  C   -0.102911
    58  C   -0.017095
    59  C    0.105137
    60  C   -0.106508
    61  C    0.100843
    62  C    0.099967
    63  C    0.039980
    64  C    0.007810
    65  P    1.312728
   102  O   -0.533970
   103  C    0.312955
   106  C    0.518032
   107  C    0.813625
   108  F   -0.282199
   109  F   -0.277127
   110  F   -0.238951
   111  F   -0.262775
   112  F   -0.259590
 APT charges:
               1
     1  O   -1.087442
     2  N   -0.210066
     3  O    0.009070
     4  O    0.151121
     5  C   -1.253682
     6  N   -0.713257
     7  C    0.450773
     8  C   -0.036691
     9  C   -0.450946
    10  C   -0.593977
    11  C   -0.025657
    12  C   -0.541429
    13  C   -0.348898
    14  C   -0.435113
    15  C   -0.214689
    16  O    0.431293
    17  O   -0.017448
    18  H    1.403484
    19  H   -0.010266
    20  H    0.406560
    21  H   -0.024399
    22  H    0.630906
    23  H    0.645677
    24  H   -0.140607
    25  H    0.897879
    26  O   -0.280644
    27  O   -0.258729
    28  C   -1.528499
    29  O   -0.342351
    30  C   -1.234192
    31  C   -1.589561
    32  O   -0.798617
    33  C   -1.158906
    34  C   -1.010320
    35  C   -1.048931
    36  C   -0.464280
    37  C    0.014088
    38  C   -0.487623
    39  C   -0.449776
    40  C    0.329331
    41  C   -0.449529
    42  C   -0.466321
    43  C   -0.233780
    44  C   -0.056554
    45  C   -0.096084
    46  C   -0.896888
    47  C   -0.276189
    48  C    0.305804
    49  C   -0.489312
    50  C   -0.474374
    51  C   -0.529473
    52  C   -1.744743
    53  C   -0.368138
    54  C   -0.404036
    55  C   -0.526385
    56  C    0.379318
    57  C   -0.502377
    58  C   -0.416657
    59  C   -0.359973
    60  C   -0.436891
    61  C   -0.084912
    62  C    0.395151
    63  C   -0.761031
    64  C   -1.454503
    65  P    0.617157
    66  H    0.347538
    67  H    0.395537
    68  H    0.939452
    69  H    0.280863
    70  H    0.868636
    71  H    0.355612
    72  H    0.095071
    73  H    0.576600
    74  H    1.045080
    75  H    0.072204
    76  H    0.585022
    77  H    0.850587
    78  H   -0.190756
    79  H   -0.203979
    80  H    0.674728
    81  H    0.607599
    82  H    0.757135
    83  H    0.003553
    84  H    0.332959
    85  H    0.479613
    86  H    0.926770
    87  H    0.712422
    88  H    0.155013
    89  H    0.736977
    90  H    0.660157
    91  H    0.872330
    92  H    0.773773
    93  H    1.251543
    94  H    0.538343
    95  H    0.928610
    96  H    0.770200
    97  H    0.889459
    98  H   -0.039942
    99  H    0.472679
   100  H    0.920310
   101  H    1.299992
   102  O   -0.354893
   103  C    0.010436
   104  H   -0.057280
   105  H    0.310881
   106  C   -0.093882
   107  C    0.068912
   108  F    0.224333
   109  F   -0.005945
   110  F   -0.409452
   111  F   -0.140418
   112  F    0.423150
 Sum of APT charges =  -0.00000
 APT charges with hydrogens summed into heavy atoms:
               1
     1  O    0.316042
     2  N   -0.220332
     3  O    0.009070
     4  O    0.557681
     5  C   -0.001498
     6  N   -0.713257
     7  C    0.450773
     8  C   -0.036691
     9  C   -0.450946
    10  C   -0.593977
    11  C   -0.025657
    12  C   -0.682035
    13  C    0.951093
    14  C    0.462765
    15  C   -0.214689
    16  O    0.431293
    17  O   -0.017448
    26  O    0.066894
    27  O   -0.258729
    28  C    0.087354
    29  O   -0.342351
    30  C    0.085126
    31  C    0.104323
    32  O   -0.798617
    33  C    0.085948
    34  C    0.068028
    35  C    0.044716
    36  C    0.015334
    37  C    0.014088
    38  C    0.439148
    39  C    0.262646
    40  C    0.329331
    41  C   -0.449529
    42  C   -0.466321
    43  C   -0.233780
    44  C   -0.056554
[...]
 Alpha virt. eigenvalues --    1.31458   1.31740   1.32443   1.32679   1.33258
 Alpha virt. eigenvalues --    1.33365   1.33844   1.34380   1.34812   1.34959
 Alpha virt. eigenvalues --    1.36038   1.36539   1.36941   1.37274   1.37823
 Alpha virt. eigenvalues --    1.38110   1.38611   1.38921   1.39084   1.39318
 Alpha virt. eigenvalues --    1.39743   1.40098   1.40390   1.40622   1.40797
 Alpha virt. eigenvalues --    1.41256   1.41337   1.41564   1.41789   1.42176
 Alpha virt. eigenvalues --    1.42810   1.42855   1.43190   1.43681   1.43772
 Alpha virt. eigenvalues --    1.44188   1.44574   1.44757   1.44929   1.45222
 Alpha virt. eigenvalues --    1.45383   1.45574   1.45843   1.46168   1.46873
 Alpha virt. eigenvalues --    1.47497   1.47649   1.48134   1.48296   1.48621
 Alpha virt. eigenvalues --    1.49184   1.49349   1.49936   1.50192   1.50463
 Alpha virt. eigenvalues --    1.51409   1.51863   1.52675   1.52742   1.53231
 Alpha virt. eigenvalues --    1.53778   1.54693   1.54954   1.55222   1.55838
 Alpha virt. eigenvalues --    1.56471   1.56928   1.57476   1.58438   1.59187
 Alpha virt. eigenvalues --    1.59395   1.59888   1.61043   1.61995   1.62729
 Alpha virt. eigenvalues --    1.63283   1.63415   1.63792   1.64274   1.64836
 Alpha virt. eigenvalues --    1.66095   1.66769   1.66851   1.67446   1.67845
 Alpha virt. eigenvalues --    1.68666   1.69256   1.70078   1.70828   1.70975
 Alpha virt. eigenvalues --    1.71839   1.71994   1.73490   1.73822   1.73927
 Alpha virt. eigenvalues --    1.74331   1.74882   1.75071   1.75442   1.75589
 Alpha virt. eigenvalues --    1.75932   1.76128   1.76700   1.76853   1.77118
 Alpha virt. eigenvalues --    1.77515   1.77816   1.78233   1.78573   1.78642
 Alpha virt. eigenvalues --    1.79075   1.79331   1.79698   1.79944   1.80204
 Alpha virt. eigenvalues --    1.80392   1.80557   1.80870   1.81201   1.81593
 Alpha virt. eigenvalues --    1.81996   1.82103   1.82357   1.82860   1.82984
 Alpha virt. eigenvalues --    1.83233   1.83583   1.83940   1.84225   1.84263
 Alpha virt. eigenvalues --    1.84640   1.85036   1.85370   1.85645   1.85946
 Alpha virt. eigenvalues --    1.86113   1.86299   1.86646   1.86744   1.87144
 Alpha virt. eigenvalues --    1.87307   1.87644   1.88016   1.88268   1.88400
 Alpha virt. eigenvalues --    1.88791   1.89137   1.89251   1.89680   1.89789
 Alpha virt. eigenvalues --    1.89955   1.90249   1.90710   1.90781   1.91342
 Alpha virt. eigenvalues --    1.91766   1.91909   1.92275   1.92674   1.93177
 Alpha virt. eigenvalues --    1.93438   1.93551   1.93636   1.94066   1.94463
 Alpha virt. eigenvalues --    1.94948   1.95209   1.96103   1.96324   1.96675
 Alpha virt. eigenvalues --    1.97047   1.97400   1.97924   1.98472   1.98800
 Alpha virt. eigenvalues --    1.99063   1.99432   1.99442   1.99962   2.00305
 Alpha virt. eigenvalues --    2.00633   2.00869   2.01562   2.01686   2.01767
 Alpha virt. eigenvalues --    2.02417   2.03034   2.03231   2.03630   2.03788
 Alpha virt. eigenvalues --    2.03929   2.04481   2.04790   2.05261   2.05613
 Alpha virt. eigenvalues --    2.06073   2.06355   2.06733   2.06867   2.07034
 Alpha virt. eigenvalues --    2.07244   2.07624   2.07711   2.08089   2.08334
 Alpha virt. eigenvalues --    2.08582   2.08757   2.09265   2.09408   2.09871
 Alpha virt. eigenvalues --    2.09959   2.10341   2.10955   2.11030   2.11146
 Alpha virt. eigenvalues --    2.11279   2.11587   2.11651   2.12019   2.12375
 Alpha virt. eigenvalues --    2.12640   2.12754   2.12829   2.13377   2.13701
 Alpha virt. eigenvalues --    2.14032   2.14178   2.14669   2.14835   2.15125
 Alpha virt. eigenvalues --    2.15320   2.15573   2.16053   2.16274   2.16624
 Alpha virt. eigenvalues --    2.16929   2.17048   2.17176   2.17540   2.17826
 Alpha virt. eigenvalues --    2.17889   2.18265   2.18306   2.18707   2.19182
 Alpha virt. eigenvalues --    2.19494   2.19660   2.20171   2.20871   2.20956
 Alpha virt. eigenvalues --    2.21159   2.21666   2.22011   2.22587   2.23534
 Alpha virt. eigenvalues --    2.23615   2.23849   2.24487   2.24655   2.24879
 Alpha virt. eigenvalues --    2.25167   2.25787   2.26083   2.26385   2.26706
 Alpha virt. eigenvalues --    2.27266   2.27492   2.28165   2.28223   2.28765
 Alpha virt. eigenvalues --    2.29189   2.29280   2.29826   2.30865   2.31001
 Alpha virt. eigenvalues --    2.31303   2.31795   2.31869   2.32094   2.32786
 Alpha virt. eigenvalues --    2.33575   2.33841   2.34661   2.34898   2.35270
 Alpha virt. eigenvalues --    2.35847   2.35938   2.36117   2.36394   2.36576
 Alpha virt. eigenvalues --    2.37566   2.38340   2.38965   2.39144   2.39389
 Alpha virt. eigenvalues --    2.39806   2.39963   2.40274   2.40978   2.41092
 Alpha virt. eigenvalues --    2.41292   2.41490   2.41583   2.41935   2.42000
 Alpha virt. eigenvalues --    2.42366   2.42700   2.43203   2.43709   2.43951
 Alpha virt. eigenvalues --    2.44517   2.44606   2.44904   2.45620   2.45951
 Alpha virt. eigenvalues --    2.46491   2.46647   2.47183   2.47479   2.47709
 Alpha virt. eigenvalues --    2.48097   2.48543   2.48952   2.49408   2.49572
 Alpha virt. eigenvalues --    2.49943   2.50990   2.51528   2.51592   2.51969
 Alpha virt. eigenvalues --    2.52622   2.52823   2.54143   2.54311   2.54717
 Alpha virt. eigenvalues --    2.55045   2.55169   2.55687   2.56249   2.56537
 Alpha virt. eigenvalues --    2.56834   2.57623   2.58322   2.59079   2.59341
 Alpha virt. eigenvalues --    2.59573   2.60127   2.60503   2.60525   2.60808
 Alpha virt. eigenvalues --    2.61063   2.61121   2.61534   2.61819   2.62407
 Alpha virt. eigenvalues --    2.62469   2.62803   2.63381   2.64348   2.64508
 Alpha virt. eigenvalues --    2.64782   2.65249   2.65282   2.65663   2.66119
 Alpha virt. eigenvalues --    2.66706   2.66954   2.67365   2.67834   2.67974
 Alpha virt. eigenvalues --    2.68307   2.68435   2.68523   2.68836   2.69035
 Alpha virt. eigenvalues --    2.69624   2.69992   2.70301   2.70709   2.71095
 Alpha virt. eigenvalues --    2.71421   2.71732   2.71919   2.72594   2.72889
 Alpha virt. eigenvalues --    2.73030   2.73693   2.74250   2.74745   2.75042
 Alpha virt. eigenvalues --    2.75388   2.75713   2.76180   2.76268   2.77312
 Alpha virt. eigenvalues --    2.77550   2.78056   2.78268   2.78666   2.78798
 Alpha virt. eigenvalues --    2.79780   2.80187   2.80778   2.81263   2.81379
 Alpha virt. eigenvalues --    2.81562   2.82065   2.82102   2.82512   2.82592
 Alpha virt. eigenvalues --    2.83368   2.83455   2.84239   2.84393   2.84661
 Alpha virt. eigenvalues --    2.85025   2.85168   2.85854   2.86426   2.86907
 Alpha virt. eigenvalues --    2.87224   2.87709   2.87894   2.88092   2.88507
 Alpha virt. eigenvalues --    2.88934   2.89334   2.89569   2.89754   2.90259
 Alpha virt. eigenvalues --    2.90715   2.90790   2.91428   2.91481   2.92122
 Alpha virt. eigenvalues --    2.92558   2.93161   2.93769   2.94116   2.94555
 Alpha virt. eigenvalues --    2.95302   2.96082   2.96321   2.96733   2.98587
 Alpha virt. eigenvalues --    2.99601   3.00944   3.01222   3.01575   3.01907
 Alpha virt. eigenvalues --    3.03583   3.04049   3.05290   3.06572   3.08222
 Alpha virt. eigenvalues --    3.08607   3.08832   3.09211   3.09606   3.10602
 Alpha virt. eigenvalues --    3.11614   3.12451   3.12927   3.13201   3.13853
 Alpha virt. eigenvalues --    3.14800   3.16139   3.16849   3.17589   3.18744
 Alpha virt. eigenvalues --    3.19341   3.19862   3.20631   3.20940   3.21601
 Alpha virt. eigenvalues --    3.21738   3.22030   3.22785   3.23618   3.24061
 Alpha virt. eigenvalues --    3.24801   3.25235   3.26011   3.26233   3.26665
 Alpha virt. eigenvalues --    3.27307   3.28877   3.29572   3.29964   3.30206
 Alpha virt. eigenvalues --    3.30324   3.30578   3.31502   3.31850   3.32238
 Alpha virt. eigenvalues --    3.33275   3.36837   3.39837   3.40710   3.41280
 Alpha virt. eigenvalues --    3.41752   3.42614   3.44180   3.44231   3.44310
 Alpha virt. eigenvalues --    3.44639   3.45260   3.45316   3.45657   3.45747
 Alpha virt. eigenvalues --    3.46347   3.46519   3.47103   3.47303   3.47509
 Alpha virt. eigenvalues --    3.47969   3.48674   3.49037   3.50533   3.50806
 Alpha virt. eigenvalues --    3.52235   3.52724   3.58011   3.59504   3.62617
 Alpha virt. eigenvalues --    3.68080   3.68661   3.73439   3.74063   3.74360
 Alpha virt. eigenvalues --    3.79079   3.92034   3.93117   3.99647   4.03048
 Alpha virt. eigenvalues --    4.09203   4.13053   4.16794   4.18602   4.18899
 Alpha virt. eigenvalues --    4.19451   4.19852   4.20827   4.21809   4.22280
 Alpha virt. eigenvalues --    4.22473   4.24018   4.25196   4.25692   4.26413
 Alpha virt. eigenvalues --    4.27500   4.29007   4.30125   4.34139   4.35491
 Alpha virt. eigenvalues --    4.37913   4.38427   4.38985   4.41046   4.41290
 Alpha virt. eigenvalues --    4.41468   4.43373   4.44325   4.45221   4.46636
 Alpha virt. eigenvalues --    4.47527   4.48450   4.50645   4.50850   4.53501
 Alpha virt. eigenvalues --    4.54503   4.55203   4.57439   4.58785   4.59619
 Alpha virt. eigenvalues --    4.61118   4.62719   4.64310   4.65474   4.67140
 Alpha virt. eigenvalues --    4.69490   4.72201   4.74927   4.78389   4.83000
 Alpha virt. eigenvalues --    4.85306   4.86718   4.89167   4.92455   4.95538
 Alpha virt. eigenvalues --    4.98216   5.01627   5.34113   5.49440   5.83110
          Condensed to atoms (all electrons):
 Mulliken charges:
               1
     1  O   -0.553215
     2  N   -0.618391
     3  O   -0.603940
     4  O   -0.610784
     5  C   -0.345721
     6  N    0.390120
     7  C    0.177415
     8  C    0.570615
     9  C    0.026054
    10  C   -0.007452
    11  C    0.631174
    12  C   -0.170488
    13  C   -0.109780
    14  C   -0.153043
    15  C    0.369131
    16  O   -0.401920
    17  O   -0.372785
    18  H    0.356674
    19  H    0.344858
    20  H    0.412536
    21  H    0.131683
    22  H    0.141829
    23  H    0.144031
    24  H    0.148197
    25  H    0.168215
    26  O   -0.595815
    27  O   -0.616025
    28  C   -0.409265
    29  O   -0.616573
    30  C   -0.395739
    31  C   -0.408648
    32  O   -0.616277
    33  C   -0.397663
    34  C   -0.414082
    35  C   -0.382583
    36  C   -0.186888
    37  C    0.134332
    38  C   -0.142816
    39  C   -0.180660
    40  C    0.088438
    41  C    0.141071
    42  C   -0.044200
    43  C    0.199472
    44  C   -0.148724
    45  C    0.077333
    46  C   -0.211554
    47  C    0.105450
    48  C    0.027090
    49  C   -0.155833
    50  C   -0.001828
    51  C    0.203929
    52  C   -0.266251
    53  C    0.007194
    54  C   -0.144427
    55  C   -0.058115
    56  C    0.023660
    57  C   -0.199215
    58  C   -0.145114
    59  C    0.104449
    60  C   -0.199700
    61  C    0.095693
    62  C    0.100007
    63  C   -0.208287
    64  C   -0.266503
    65  P    1.317198
    66  H    0.382806
    67  H    0.132673
    68  H    0.142828
    69  H    0.125711
    70  H    0.128034
    71  H    0.126950
    72  H    0.148839
    73  H    0.131150
    74  H    0.135674
    75  H    0.142725
    76  H    0.123724
    77  H    0.132170
    78  H    0.152294
    79  H    0.156562
    80  H    0.124654
    81  H    0.135358
    82  H    0.141543
    83  H    0.114458
    84  H    0.108473
    85  H    0.089975
    86  H    0.126790
    87  H    0.103309
    88  H    0.137921
    89  H    0.119396
    90  H    0.130967
    91  H    0.139724
    92  H    0.137424
    93  H    0.124742
    94  H    0.102545
    95  H    0.130933
    96  H    0.100933
    97  H    0.118771
    98  H    0.132719
    99  H    0.143264
   100  H    0.136016
   101  H    0.180024
   102  O   -0.537636
   103  C   -0.027838
   104  H    0.177160
   105  H    0.161549
   106  C    0.518313
   107  C    0.811938
   108  F   -0.281558
   109  F   -0.276889
   110  F   -0.243154
   111  F   -0.262548
   112  F   -0.258960
 Sum of Mulliken charges =  -0.00000
 Mulliken charges with hydrogens summed into heavy atoms:
               1
     1  O   -0.196540
     2  N   -0.273533
     3  O   -0.191403
     4  O   -0.610784
     5  C    0.071822
     6  N    0.390120
     7  C    0.177415
     8  C    0.570615
     9  C    0.026054
    10  C   -0.007452
    11  C    0.631174
    12  C   -0.022290
    13  C    0.070243
    14  C    0.015172
    15  C    0.369131
    16  O   -0.401920
    17  O   -0.372785
    26  O   -0.213010
    27  O   -0.616025
    28  C   -0.008051
    29  O   -0.616573
    30  C    0.008085
    31  C    0.000900
    32  O   -0.616277
    33  C    0.010524
    34  C    0.002493
    35  C   -0.018109
    36  C   -0.096913
    37  C    0.134332
    38  C   -0.016026
    39  C   -0.077352
    40  C    0.088438
    41  C    0.141071
    42  C   -0.044200
    43  C    0.199472
    44  C   -0.148724
    45  C    0.077333
    46  C    0.045764
    47  C    0.105450
    48  C    0.027090
    49  C   -0.024866
    50  C   -0.001828
    51  C    0.203929
    52  C    0.010897
    53  C    0.007194
    54  C   -0.019685
    55  C   -0.058115
    56  C    0.023660
    57  C   -0.096670
    58  C   -0.014181
    59  C    0.104449
    60  C   -0.098767
    61  C    0.095693
    62  C    0.100007
    63  C    0.043203
    64  C    0.012778
    65  P    1.317198
   102  O   -0.537636
   103  C    0.310871
   106  C    0.518313
   107  C    0.811938
   108  F   -0.281558
   109  F   -0.276889
   110  F   -0.243154
   111  F   -0.262548
   112  F   -0.258960
 APT charges:
               1
     1  O   -1.129060
     2  N   -0.133902
     3  O   -0.198128
     4  O    0.363015
     5  C   -1.227785
     6  N   -0.705602
     7  C    0.450486
     8  C    0.395362
     9  C   -0.455477
    10  C   -0.596147
    11  C   -0.414997
    12  C   -0.545674
    13  C   -0.346305
    14  C   -0.419836
    15  C   -0.233964
    16  O    0.432239
    17  O   -0.034227
    18  H    1.345155
    19  H   -0.080535
    20  H    0.353612
    21  H   -0.048830
    22  H    0.607265
    23  H    0.691102
    24  H   -0.156961
    25  H    0.902411
    26  O   -0.452344
    27  O   -0.244468
    28  C   -1.538675
    29  O   -0.311805
    30  C   -1.256341
    31  C   -1.586607
    32  O   -0.786374
    33  C   -1.205755
    34  C   -1.017875
    35  C   -1.060144
    36  C   -0.446698
    37  C    0.017364
    38  C   -0.486592
    39  C   -0.467801
    40  C    0.328948
    41  C   -0.443807
    42  C   -0.459991
    43  C   -0.237510
    44  C   -0.061880
    45  C   -0.078245
    46  C   -0.899722
    47  C   -0.287766
    48  C    0.305037
    49  C   -0.492059
    50  C   -0.478788
    51  C   -0.549966
    52  C   -1.756717
    53  C   -0.375162
    54  C   -0.411722
    55  C   -0.512498
    56  C    0.379468
    57  C   -0.492399
    58  C   -0.418898
    59  C   -0.372495
    60  C   -0.459093
    61  C   -0.051774
    62  C    0.372983
    63  C   -0.771373
    64  C   -1.461274
    65  P    0.645932
    66  H    0.532429
    67  H    0.504868
    68  H    0.901054
    69  H    0.214386
    70  H    0.878873
    71  H    0.359760
    72  H    0.098521
    73  H    0.626725
    74  H    1.024524
    75  H    0.045223
    76  H    0.548764
    77  H    0.903815
    78  H   -0.163883
    79  H   -0.202321
    80  H    0.689249
    81  H    0.599563
    82  H    0.762891
    83  H    0.012371
    84  H    0.329550
    85  H    0.480417
    86  H    0.934046
    87  H    0.720523
    88  H    0.154223
    89  H    0.743570
    90  H    0.665112
    91  H    0.876986
    92  H    0.783627
    93  H    1.263348
    94  H    0.534356
    95  H    0.939478
    96  H    0.782059
    97  H    0.897724
    98  H   -0.038042
    99  H    0.477431
   100  H    0.925849
   101  H    1.297209
   102  O   -0.358990
   103  C    0.017974
   104  H   -0.054444
   105  H    0.299528
   106  C   -0.092908
   107  C    0.067463
   108  F    0.221166
   109  F   -0.002643
   110  F   -0.408296
   111  F   -0.140932
   112  F    0.419476
 Sum of APT charges =  -0.00000
 APT charges with hydrogens summed into heavy atoms:
               1
     1  O    0.216094
     2  N   -0.214437
     3  O    0.155484
     4  O    0.363015
     5  C    0.021751
     6  N   -0.705602
     7  C    0.450486
     8  C    0.395362
     9  C   -0.455477
    10  C   -0.596147
    11  C   -0.414997
    12  C   -0.702636
    13  C    0.950904
    14  C    0.482575
    15  C   -0.233964
    16  O    0.432239
    17  O   -0.034227
    26  O    0.080085
    27  O   -0.244468
    28  C    0.081633
    29  O   -0.311805
    30  C    0.080814
    31  C    0.109865
    32  O   -0.786374
    33  C    0.082941
    34  C    0.068616
    35  C    0.044669
    36  C    0.033719
    37  C    0.017364
    38  C    0.447454
    39  C    0.252721
    40  C    0.328948
    41  C   -0.443807
    42  C   -0.459991
    43  C   -0.237510
    44  C   -0.061880
    45  C   -0.078245
    46  C   -0.001930
    47  C   -0.287766
    48  C    0.305037
    49  C    0.173053
    50  C   -0.478788
    51  C   -0.549966
    52  C   -0.096104
    53  C   -0.375162
    54  C    0.851626
    55  C   -0.512498
    56  C    0.379468
    57  C    0.041957
    58  C    0.520580
    59  C   -0.372495
    60  C    0.322966
    61  C   -0.051774
    62  C    0.372983
    63  C    0.088309
    64  C   -0.057994
    65  P    0.645932
   102  O   -0.358990
   103  C    0.263058
   106  C   -0.092908
   107  C    0.067463
   108  F    0.221166
   109  F   -0.002643
   110  F   -0.408296
   111  F   -0.140932
   112  F    0.419476
 Electronic spatial extent (au):  <R**2>=          40189.5808
 Charge=             -0.0000 electrons
 Dipole moment (field-independent basis, Debye):
    X=              7.5846    Y=              2.0009    Z=             -2.6984  Tot=              8.2953
 Quadrupole moment (field-independent basis, Debye-Ang):
   XX=           -394.9467   YY=           -368.1573   ZZ=           -383.0653
   XY=            -22.0582   XZ=              7.2298   YZ=              9.9693
 Traceless Quadrupole moment (field-independent basis, Debye-Ang):
   XX=            -12.8903   YY=             13.8991   ZZ=             -1.0089
   XY=            -22.0582   XZ=              7.2298   YZ=              9.9693
 Octapole moment (field-independent basis, Debye-Ang**2):
  XXX=            211.2002  YYY=           -102.6372  ZZZ=             93.8100  XYY=             60.9679
  XXY=             35.2872  XXZ=            -99.9950  XZZ=              5.3531  YZZ=             31.7155
  YYZ=            -40.3037  XYZ=            -34.2406
 Hexadecapole moment (field-independent basis, Debye-Ang**3):
 XXXX=         -25731.0495 YYYY=         -15556.4680 ZZZZ=         -11035.7186 XXXY=           -876.7977
 XXXZ=            144.9643 YYYX=            188.8623 YYYZ=           -458.9405 ZZZX=            -65.5954
 ZZZY=           -483.7592 XXYY=          -7104.2108 XXZZ=          -6369.5790 YYZZ=          -4360.8189
 XXYZ=            165.5669 YYXZ=             42.1000 ZZXY=           -102.3301
 N-N= 1.226071710880D+04 E-N=-3.284465586707D+04  KE= 3.530881452166D+03
  Exact polarizability:       0.000       0.000       0.000       0.000       0.000       0.000
 Approx polarizability:     743.853     -13.259     747.936     -16.920     -59.792     608.749
 Leave Link  601 at Sun Nov 13 08:34:17 2022, MaxMem=  8053063680 cpu:               7.4 elap:               0.6
 (Enter /project/chenjingdan/g16/l9999.exe)

 This type of calculation cannot be archived.


 ACCORDING TO HEN3RY, LIFE IS MUCH LIKE A SEWER........
 YOU GET OUT OF IT JUST WHAT YOU PUT INTO IT...........
                         TOM LEHRER - (THE 3 IS SILENT)
 Job cpu time:       4 days  5 hours  7 minutes  3.4 seconds.
 Elapsed time:       0 days  6 hours 20 minutes 14.1 seconds.
 File lengths (MBytes):  RWF=    986 Int=      0 D2E=      0 Chk=    123 Scr=      1
 Normal termination of Gaussian 16 at Sun Nov 13 08:34:17 2022.
