 Entering Gaussian System, Link 0=g16
 Initial command:
 /project/chenjingdan/g16/l1.exe "/scratch/chenjingdan/scratch/Gau-244590.inp" -scrdir="/scratch/chenjingdan/scratch/"
 Entering Link 1 = /project/chenjingdan/g16/l1.exe PID=    244593.
  
 Copyright (c) 1988-2019, Gaussian, Inc.  All Rights Reserved.
  
 This is part of the Gaussian(R) 16 program.  It is based on
 the Gaussian(R) 09 system (copyright 2009, Gaussian, Inc.),
 the Gaussian(R) 03 system (copyright 2003, Gaussian, Inc.),
 the Gaussian(R) 98 system (copyright 1998, Gaussian, Inc.),
 the Gaussian(R) 94 system (copyright 1995, Gaussian, Inc.),
 the Gaussian 92(TM) system (copyright 1992, Gaussian, Inc.),
 the Gaussian 90(TM) system (copyright 1990, Gaussian, Inc.),
 the Gaussian 88(TM) system (copyright 1988, Gaussian, Inc.),
 the Gaussian 86(TM) system (copyright 1986, Carnegie Mellon
 University), and the Gaussian 82(TM) system (copyright 1983,
 Carnegie Mellon University). Gaussian is a federally registered
 trademark of Gaussian, Inc.
  
 This software contains proprietary and confidential information,
 including trade secrets, belonging to Gaussian, Inc.
  
 This software is provided under written license and may be
 used, copied, transmitted, or stored only in accord with that
 written license.
  
 The following legend is applicable only to US Government
 contracts under FAR:
  
                    RESTRICTED RIGHTS LEGEND
  
 Use, reproduction and disclosure by the US Government is
 subject to restrictions as set forth in subparagraphs (a)
 and (c) of the Commercial Computer Software - Restricted
 Rights clause in FAR 52.227-19.
  
 Gaussian, Inc.
 340 Quinnipiac St., Bldg. 40, Wallingford CT 06492
  
  
 ---------------------------------------------------------------
 Warning -- This program may not be used in any manner that
 competes with the business of Gaussian, Inc. or will provide
 assistance to any competitor of Gaussian, Inc.  The licensee
 of this program is prohibited from giving any competitor of
 Gaussian, Inc. access to this program.  By using this program,
 the user acknowledges that Gaussian, Inc. is engaged in the
 business of creating and licensing software in the field of
 computational chemistry and represents and warrants to the
 licensee that it is not a competitor of Gaussian, Inc. and that
 it will not use this program in any manner prohibited above.
 ---------------------------------------------------------------
  

 Cite this work as:
 Gaussian 16, Revision C.01,
 M. J. Frisch, G. W. Trucks, H. B. Schlegel, G. E. Scuseria, 
 M. A. Robb, J. R. Cheeseman, G. Scalmani, V. Barone, 
 G. A. Petersson, H. Nakatsuji, X. Li, M. Caricato, A. V. Marenich, 
 J. Bloino, B. G. Janesko, R. Gomperts, B. Mennucci, H. P. Hratchian, 
 J. V. Ortiz, A. F. Izmaylov, J. L. Sonnenberg, D. Williams-Young, 
 F. Ding, F. Lipparini, F. Egidi, J. Goings, B. Peng, A. Petrone, 
 T. Henderson, D. Ranasinghe, V. G. Zakrzewski, J. Gao, N. Rega, 
 G. Zheng, W. Liang, M. Hada, M. Ehara, K. Toyota, R. Fukuda, 
 J. Hasegawa, M. Ishida, T. Nakajima, Y. Honda, O. Kitao, H. Nakai, 
 T. Vreven, K. Throssell, J. A. Montgomery, Jr., J. E. Peralta, 
 F. Ogliaro, M. J. Bearpark, J. J. Heyd, E. N. Brothers, K. N. Kudin, 
 V. N. Staroverov, T. A. Keith, R. Kobayashi, J. Normand, 
 K. Raghavachari, A. P. Rendell, J. C. Burant, S. S. Iyengar, 
 J. Tomasi, M. Cossi, J. M. Millam, M. Klene, C. Adamo, R. Cammi, 
 J. W. Ochterski, R. L. Martin, K. Morokuma, O. Farkas, 
 J. B. Foresman, and D. J. Fox, Gaussian, Inc., Wallingford CT, 2019.
 
 ******************************************
 Gaussian 16:  ES64L-G16RevC.01  3-Jul-2019
                29-Oct-2022 
 ******************************************
 %nprocshared=16
 Will use up to   16 processors via shared memory.
 %mem=60GB
 %chk=R_PA1_ts2_irc.chk
 -------------------------------------------------
 #p 6-31g(d,p) m062x irc=(calcfc,maxpoints=30,LQA)
 -------------------------------------------------
 1/10=4,18=10,26=3,38=1,42=30,44=3,45=2,172=1/1,23;
 2/12=2,17=6,18=5,29=1,40=1/2;
 3/5=1,6=6,7=101,11=2,25=1,30=1,71=2,74=-55,140=1/1,2,3;
 4//1;
 5/5=2,38=5/2;
 8/6=4,10=90,11=11/1;
 11/6=1,8=1,9=11,15=111,16=1/1,2,10;
 10/6=1,13=1/2;
 6/7=2,8=2,9=2,10=2,28=1/1;
 7/10=1,25=1/1,2,3,16;
 1/10=4,18=10,26=3,42=30,44=3,45=2/23(2);
 2/29=1/2;
 99/5=20/99;
 2/29=1/2;
 3/5=1,6=6,7=101,11=2,25=1,30=1,71=2,74=-55,140=1/1,2,3;
 4/5=5,16=3,69=1/1;
 5/5=2,38=5/2;
 8/6=4,10=90,11=11/1;
 11/6=1,8=1,9=11,15=111,16=1/1,2,10;
 10/6=1,13=1/2;
 7/10=1,25=1/1,2,3,16;
 1/18=10,26=3,42=30,44=3,45=2/23(-8);
 2/29=1/2;
 6/7=2,8=2,9=2,10=2,19=2,28=1/1;
 99/5=20,9=1/99;
 Leave Link    1 at Sat Oct 29 10:49:03 2022, MaxMem=  8053063680 cpu:               2.2 elap:               0.2
 (Enter /project/chenjingdan/g16/l101.exe)
 -----
 TITLE
 -----
 Symbolic Z-matrix:
 Charge =  0 Multiplicity = 1
 O                     0.14266   1.77237   2.99204 
 N                     2.70136   1.41206   0.37042 
 O                     2.23913   1.27853   3.25495 
 O                     4.30236   1.75532   1.95935 
 C                     0.73726   2.92105   0.33602 
 N                     8.06559  -0.36922  -2.75351 
 C                     7.00168   0.10593  -1.84878 
 C                     1.30277   1.61336   2.43138 
 C                     5.01295   0.98098  -0.16714 
 C                     1.4531    1.76185   1.02297 
 C                     3.96395   1.43079   0.80607 
 C                     6.18447   0.43715   0.36432 
 C                     5.85933   0.66201  -2.40682 
 C                     4.85835   1.10366  -1.55118 
 C                     7.19086  -0.01412  -0.47913 
 O                     9.05772  -0.85261  -2.24364 
 O                     7.87848  -0.24624  -3.94894 
 H                     0.63647   0.69194   0.47851 
 H                     2.55628   0.95579  -0.52369 
 H                     3.15285   1.47539   2.83168 
 H                     0.5379    2.6771   -0.71287 
 H                    -0.23396   3.11477   0.79674 
 H                     1.33722   3.83677   0.37081 
 H                     6.28982   0.37894   1.44202 
 H                     5.77585   0.74681  -3.48276 
 H                     3.97296   1.57167  -1.97031 
 H                     8.10711  -0.44995  -0.1015 
 H                    -0.63229   1.61346   2.35087 
 O                    -0.01285   0.02874  -0.20096 
 O                    -2.34693   0.21412  -0.97783 
 C                    -1.11749   6.33873  -0.79116 
 O                    -1.8554   -1.35946   0.95198 
 C                    -3.08313   2.32149  -3.10707 
 C                     3.77714  -1.27378   3.85906 
 O                    -1.72098   1.11189   1.398 
 C                     2.19085  -2.07289  -0.8386 
 C                    -0.79696  -3.22967   3.12383 
 C                    -4.02485   3.17967   1.81726 
 C                    -2.60397   4.70993   0.42926 
 C                    -4.43396  -0.92702  -0.69256 
 C                    -6.43476   0.33151  -0.16928 
 C                    -2.14714   4.30356  -1.8825 
 C                    -1.97058   5.09661  -0.75314 
 C                    -2.58858  -2.85868  -0.76016 
 C                    -3.53978   2.76505  -0.64815 
 C                    -3.72487   0.26164  -0.76598 
 C                    -4.00992  -2.36059  -0.96335 
 C                    -2.92246   3.14179  -1.85132 
 C                    -4.22534  -2.7473   -2.45515 
 C                    -3.38624   3.55979   0.50458 
 C                    -5.7876   -0.88439  -0.34517 
 C                    -5.71143   1.51461  -0.31121 
 C                    -0.36713  -3.10982   0.21234 
 C                    -1.60831  -2.46164   0.13686 
 C                    -3.45379  -4.06886  -2.62641 
 C                    -4.33959   1.50658  -0.58343 
 C                    -1.1022   -4.57907  -1.59156 
 C                     0.69862  -2.64865   1.15097 
 C                    -2.30994  -3.89731  -1.65361 
 C                     1.48812  -2.23382   3.39696 
 C                    -0.15151  -4.19047  -0.64999 
 C                     0.48627  -2.69249   2.54081 
 C                     2.89564  -1.72314   1.53728 
 C                     1.91918  -2.16327   0.64407 
 C                     2.70104  -1.74592   2.91675 
 C                    -5.03222  -3.12162  -0.07216 
 C                    -6.32402  -2.28746  -0.17192 
 P                    -1.4486    0.08269   0.35257 
 H                    -0.68774   6.495    -1.78307 
 H                    -1.70172   7.22676  -0.53171 
 H                    -0.29505   6.27029  -0.07198 
 H                    -2.46621   1.41836  -3.06421 
 H                    -2.78158   2.8987   -3.98391 
 H                    -4.12052   2.00396  -3.24406 
 H                     4.45031  -0.56839   3.36238 
 H                     3.34211  -0.77      4.72507 
 H                     4.3784   -2.11452   4.22063 
 H                     2.41806  -3.05052  -1.27474 
 H                     1.32792  -1.66364  -1.36948 
 H                     3.06082  -1.43242  -1.02279 
 H                    -1.12507  -4.13033   2.59763 
 H                    -1.60008  -2.491     3.04545 
 H                    -0.66316  -3.47651   4.17908 
 H                    -3.57637   3.74913   2.63445 
 H                    -5.09964   3.38766   1.81834 
 H                    -3.8847    2.11636   2.02122 
 H                    -2.47526   5.31671   1.3236 
 H                    -7.4882    0.36395   0.09213 
 H                    -1.67293   4.59407  -2.81762 
 H                    -3.77299  -1.97251  -3.08328 
 H                    -5.28528  -2.81979  -2.71429 
 H                    -6.2054    2.47276  -0.1807 
 H                    -3.10953  -4.23036  -3.65133 
 H                    -4.07487  -4.93092  -2.35382 
 H                    -0.89066  -5.39333  -2.2781 
 H                     1.31392  -2.25966   4.47027 
 H                     0.79694  -4.71571  -0.58769 
 H                     3.84174  -1.35446   1.14112 
 H                    -5.15697  -4.16284  -0.3826 
 H                    -4.66636  -3.11406   0.95995 
 H                    -6.95956  -2.38325   0.71236 
 H                    -6.9268   -2.58813  -1.03755 
 
 ITRead=  0  0  0  0  0  0  0  0  0  0  0  0  0  0  0  0  0  0  0  0
 ITRead=  0  0  0  0  0  0  0  0  0  0  0  0  0  0  0  0  0  0  0  0
 ITRead=  0  0  0  0  0  0  0  0  0  0  0  0  0  0  0  0  0  0  0  0
 ITRead=  0  0  0  0  0  0  0  0  0  0  0  0  0  0  0  0  0  0  0  0
 ITRead=  0  0  0  0  0  0  0  0  0  0  0  0  0  0  0  0  0  0  0  0
 ITRead=  0  0
 MicOpt= -1 -1 -1 -1 -1 -1 -1 -1 -1 -1 -1 -1 -1 -1 -1 -1 -1 -1 -1 -1
 MicOpt= -1 -1 -1 -1 -1 -1 -1 -1 -1 -1 -1 -1 -1 -1 -1 -1 -1 -1 -1 -1
 MicOpt= -1 -1 -1 -1 -1 -1 -1 -1 -1 -1 -1 -1 -1 -1 -1 -1 -1 -1 -1 -1
 MicOpt= -1 -1 -1 -1 -1 -1 -1 -1 -1 -1 -1 -1 -1 -1 -1 -1 -1 -1 -1 -1
 MicOpt= -1 -1 -1 -1 -1 -1 -1 -1 -1 -1 -1 -1 -1 -1 -1 -1 -1 -1 -1 -1
 MicOpt= -1 -1
 NAtoms=    102 NQM=      102 NQMF=       0 NMMI=      0 NMMIF=      0
                NMic=       0 NMicF=      0.
                    Isotopes and Nuclear Properties:
 (Nuclear quadrupole moments (NQMom) in fm**2, nuclear magnetic moments (NMagM)
  in nuclear magnetons)

  Atom         1           2           3           4           5           6           7           8           9          10
 IAtWgt=          16          14          16          16          12          14          12          12          12          12
 AtmWgt=  15.9949146  14.0030740  15.9949146  15.9949146  12.0000000  14.0030740  12.0000000  12.0000000  12.0000000  12.0000000
 NucSpn=           0           2           0           0           0           2           0           0           0           0
 AtZEff=  -0.0000000  -0.0000000  -0.0000000  -0.0000000  -0.0000000  -0.0000000  -0.0000000  -0.0000000  -0.0000000  -0.0000000
 NQMom=    0.0000000   2.0440000   0.0000000   0.0000000   0.0000000   2.0440000   0.0000000   0.0000000   0.0000000   0.0000000
 NMagM=    0.0000000   0.4037610   0.0000000   0.0000000   0.0000000   0.4037610   0.0000000   0.0000000   0.0000000   0.0000000
 AtZNuc=   8.0000000   7.0000000   8.0000000   8.0000000   6.0000000   7.0000000   6.0000000   6.0000000   6.0000000   6.0000000

  Atom        11          12          13          14          15          16          17          18          19          20
 IAtWgt=          12          12          12          12          12          16          16           1           1           1
 AtmWgt=  12.0000000  12.0000000  12.0000000  12.0000000  12.0000000  15.9949146  15.9949146   1.0078250   1.0078250   1.0078250
 NucSpn=           0           0           0           0           0           0           0           1           1           1
 AtZEff=  -0.0000000  -0.0000000  -0.0000000  -0.0000000  -0.0000000  -0.0000000  -0.0000000  -0.0000000  -0.0000000  -0.0000000
 NQMom=    0.0000000   0.0000000   0.0000000   0.0000000   0.0000000   0.0000000   0.0000000   0.0000000   0.0000000   0.0000000
 NMagM=    0.0000000   0.0000000   0.0000000   0.0000000   0.0000000   0.0000000   0.0000000   2.7928460   2.7928460   2.7928460
 AtZNuc=   6.0000000   6.0000000   6.0000000   6.0000000   6.0000000   8.0000000   8.0000000   1.0000000   1.0000000   1.0000000

  Atom        21          22          23          24          25          26          27          28          29          30
 IAtWgt=           1           1           1           1           1           1           1           1          16          16
 AtmWgt=   1.0078250   1.0078250   1.0078250   1.0078250   1.0078250   1.0078250   1.0078250   1.0078250  15.9949146  15.9949146
 NucSpn=           1           1           1           1           1           1           1           1           0           0
 AtZEff=  -0.0000000  -0.0000000  -0.0000000  -0.0000000  -0.0000000  -0.0000000  -0.0000000  -0.0000000  -0.0000000  -0.0000000
 NQMom=    0.0000000   0.0000000   0.0000000   0.0000000   0.0000000   0.0000000   0.0000000   0.0000000   0.0000000   0.0000000
 NMagM=    2.7928460   2.7928460   2.7928460   2.7928460   2.7928460   2.7928460   2.7928460   2.7928460   0.0000000   0.0000000
 AtZNuc=   1.0000000   1.0000000   1.0000000   1.0000000   1.0000000   1.0000000   1.0000000   1.0000000   8.0000000   8.0000000

  Atom        31          32          33          34          35          36          37          38          39          40
 IAtWgt=          12          16          12          12          16          12          12          12          12          12
 AtmWgt=  12.0000000  15.9949146  12.0000000  12.0000000  15.9949146  12.0000000  12.0000000  12.0000000  12.0000000  12.0000000
 NucSpn=           0           0           0           0           0           0           0           0           0           0
 AtZEff=  -0.0000000  -0.0000000  -0.0000000  -0.0000000  -0.0000000  -0.0000000  -0.0000000  -0.0000000  -0.0000000  -0.0000000
 NQMom=    0.0000000   0.0000000   0.0000000   0.0000000   0.0000000   0.0000000   0.0000000   0.0000000   0.0000000   0.0000000
 NMagM=    0.0000000   0.0000000   0.0000000   0.0000000   0.0000000   0.0000000   0.0000000   0.0000000   0.0000000   0.0000000
 AtZNuc=   6.0000000   8.0000000   6.0000000   6.0000000   8.0000000   6.0000000   6.0000000   6.0000000   6.0000000   6.0000000

  Atom        41          42          43          44          45          46          47          48          49          50
 IAtWgt=          12          12          12          12          12          12          12          12          12          12
 AtmWgt=  12.0000000  12.0000000  12.0000000  12.0000000  12.0000000  12.0000000  12.0000000  12.0000000  12.0000000  12.0000000
 NucSpn=           0           0           0           0           0           0           0           0           0           0
 AtZEff=  -0.0000000  -0.0000000  -0.0000000  -0.0000000  -0.0000000  -0.0000000  -0.0000000  -0.0000000  -0.0000000  -0.0000000
 NQMom=    0.0000000   0.0000000   0.0000000   0.0000000   0.0000000   0.0000000   0.0000000   0.0000000   0.0000000   0.0000000
 NMagM=    0.0000000   0.0000000   0.0000000   0.0000000   0.0000000   0.0000000   0.0000000   0.0000000   0.0000000   0.0000000
 AtZNuc=   6.0000000   6.0000000   6.0000000   6.0000000   6.0000000   6.0000000   6.0000000   6.0000000   6.0000000   6.0000000

  Atom        51          52          53          54          55          56          57          58          59          60
 IAtWgt=          12          12          12          12          12          12          12          12          12          12
 AtmWgt=  12.0000000  12.0000000  12.0000000  12.0000000  12.0000000  12.0000000  12.0000000  12.0000000  12.0000000  12.0000000
 NucSpn=           0           0           0           0           0           0           0           0           0           0
 AtZEff=  -0.0000000  -0.0000000  -0.0000000  -0.0000000  -0.0000000  -0.0000000  -0.0000000  -0.0000000  -0.0000000  -0.0000000
 NQMom=    0.0000000   0.0000000   0.0000000   0.0000000   0.0000000   0.0000000   0.0000000   0.0000000   0.0000000   0.0000000
 NMagM=    0.0000000   0.0000000   0.0000000   0.0000000   0.0000000   0.0000000   0.0000000   0.0000000   0.0000000   0.0000000
 AtZNuc=   6.0000000   6.0000000   6.0000000   6.0000000   6.0000000   6.0000000   6.0000000   6.0000000   6.0000000   6.0000000

  Atom        61          62          63          64          65          66          67          68          69          70
 IAtWgt=          12          12          12          12          12          12          12          31           1           1
 AtmWgt=  12.0000000  12.0000000  12.0000000  12.0000000  12.0000000  12.0000000  12.0000000  30.9737634   1.0078250   1.0078250
 NucSpn=           0           0           0           0           0           0           0           1           1           1
 AtZEff=  -0.0000000  -0.0000000  -0.0000000  -0.0000000  -0.0000000  -0.0000000  -0.0000000  -0.0000000  -0.0000000  -0.0000000
 NQMom=    0.0000000   0.0000000   0.0000000   0.0000000   0.0000000   0.0000000   0.0000000   0.0000000   0.0000000   0.0000000
 NMagM=    0.0000000   0.0000000   0.0000000   0.0000000   0.0000000   0.0000000   0.0000000   1.1316000   2.7928460   2.7928460
 AtZNuc=   6.0000000   6.0000000   6.0000000   6.0000000   6.0000000   6.0000000   6.0000000  15.0000000   1.0000000   1.0000000

  Atom        71          72          73          74          75          76          77          78          79          80
 IAtWgt=           1           1           1           1           1           1           1           1           1           1
 AtmWgt=   1.0078250   1.0078250   1.0078250   1.0078250   1.0078250   1.0078250   1.0078250   1.0078250   1.0078250   1.0078250
 NucSpn=           1           1           1           1           1           1           1           1           1           1
 AtZEff=  -0.0000000  -0.0000000  -0.0000000  -0.0000000  -0.0000000  -0.0000000  -0.0000000  -0.0000000  -0.0000000  -0.0000000
 NQMom=    0.0000000   0.0000000   0.0000000   0.0000000   0.0000000   0.0000000   0.0000000   0.0000000   0.0000000   0.0000000
 NMagM=    2.7928460   2.7928460   2.7928460   2.7928460   2.7928460   2.7928460   2.7928460   2.7928460   2.7928460   2.7928460
 AtZNuc=   1.0000000   1.0000000   1.0000000   1.0000000   1.0000000   1.0000000   1.0000000   1.0000000   1.0000000   1.0000000

  Atom        81          82          83          84          85          86          87          88          89          90
 IAtWgt=           1           1           1           1           1           1           1           1           1           1
 AtmWgt=   1.0078250   1.0078250   1.0078250   1.0078250   1.0078250   1.0078250   1.0078250   1.0078250   1.0078250   1.0078250
 NucSpn=           1           1           1           1           1           1           1           1           1           1
 AtZEff=  -0.0000000  -0.0000000  -0.0000000  -0.0000000  -0.0000000  -0.0000000  -0.0000000  -0.0000000  -0.0000000  -0.0000000
 NQMom=    0.0000000   0.0000000   0.0000000   0.0000000   0.0000000   0.0000000   0.0000000   0.0000000   0.0000000   0.0000000
 NMagM=    2.7928460   2.7928460   2.7928460   2.7928460   2.7928460   2.7928460   2.7928460   2.7928460   2.7928460   2.7928460
 AtZNuc=   1.0000000   1.0000000   1.0000000   1.0000000   1.0000000   1.0000000   1.0000000   1.0000000   1.0000000   1.0000000

  Atom        91          92          93          94          95          96          97          98          99         100
 IAtWgt=           1           1           1           1           1           1           1           1           1           1
 AtmWgt=   1.0078250   1.0078250   1.0078250   1.0078250   1.0078250   1.0078250   1.0078250   1.0078250   1.0078250   1.0078250
 NucSpn=           1           1           1           1           1           1           1           1           1           1
 AtZEff=  -0.0000000  -0.0000000  -0.0000000  -0.0000000  -0.0000000  -0.0000000  -0.0000000  -0.0000000  -0.0000000  -0.0000000
 NQMom=    0.0000000   0.0000000   0.0000000   0.0000000   0.0000000   0.0000000   0.0000000   0.0000000   0.0000000   0.0000000
 NMagM=    2.7928460   2.7928460   2.7928460   2.7928460   2.7928460   2.7928460   2.7928460   2.7928460   2.7928460   2.7928460
 AtZNuc=   1.0000000   1.0000000   1.0000000   1.0000000   1.0000000   1.0000000   1.0000000   1.0000000   1.0000000   1.0000000

  Atom       101         102
 IAtWgt=           1           1
 AtmWgt=   1.0078250   1.0078250
 NucSpn=           1           1
 AtZEff=  -0.0000000  -0.0000000
 NQMom=    0.0000000   0.0000000
 NMagM=    2.7928460   2.7928460
 AtZNuc=   1.0000000   1.0000000
 Leave Link  101 at Sat Oct 29 10:49:05 2022, MaxMem=  8053063680 cpu:               6.2 elap:               0.7
 (Enter /project/chenjingdan/g16/l123.exe)
 IRC-IRC-IRC-IRC-IRC-IRC-IRC-IRC-IRC-IRC-IRC-IRC-IRC-IRC-IRC-IRC-IRC-IRC
 ------------------------------------------------------------------------
 INPUT DATA FOR L123
 ------------------------------------------------------------------------
 GENERAL PARAMETERS:
 Follow reaction path in both directions.
 Maximum points per path      =  30
 Step size                    =   0.100 bohr
 Integration scheme           = LQA                                 
 Initial Hessian              = CalcFC
 Hessian evaluation           = All updating
 Hessian updating method      = Bofill                              
 ------------------------------------------------------------------------
 IRC-IRC-IRC-IRC-IRC-IRC-IRC-IRC-IRC-IRC-IRC-IRC-IRC-IRC-IRC-IRC-IRC-IRC
 Leave Link  123 at Sat Oct 29 10:49:05 2022, MaxMem=  8053063680 cpu:               0.1 elap:               0.0
 (Enter /project/chenjingdan/g16/l202.exe)
 Symmetry turned off by external request.
 Stoichiometry    C45H45N2O9P
 Framework group  C1[X(C45H45N2O9P)]
 Deg. of freedom   300
 Full point group                 C1      NOp   1
                          Input orientation:                          
 ---------------------------------------------------------------------
 Center     Atomic      Atomic             Coordinates (Angstroms)
 Number     Number       Type             X           Y           Z
 ---------------------------------------------------------------------
      1          8           0        0.142660    1.772370    2.992040
      2          7           0        2.701360    1.412060    0.370420
      3          8           0        2.239130    1.278530    3.254950
      4          8           0        4.302360    1.755320    1.959350
      5          6           0        0.737260    2.921050    0.336020
      6          7           0        8.065591   -0.369219   -2.753510
      7          6           0        7.001680    0.105931   -1.848780
      8          6           0        1.302770    1.613360    2.431380
      9          6           0        5.012950    0.980981   -0.167140
     10          6           0        1.453100    1.761850    1.022970
     11          6           0        3.963950    1.430790    0.806070
     12          6           0        6.184470    0.437151    0.364320
     13          6           0        5.859330    0.662011   -2.406820
     14          6           0        4.858350    1.103661   -1.551180
     15          6           0        7.190860   -0.014119   -0.479130
     16          8           0        9.057721   -0.852609   -2.243640
     17          8           0        7.878480   -0.246239   -3.948940
     18          1           0        0.636470    0.691940    0.478510
     19          1           0        2.556280    0.955790   -0.523690
     20          1           0        3.152850    1.475390    2.831680
     21          1           0        0.537900    2.677100   -0.712870
     22          1           0       -0.233960    3.114770    0.796740
     23          1           0        1.337220    3.836770    0.370810
     24          1           0        6.289820    0.378941    1.442020
     25          1           0        5.775850    0.746811   -3.482760
     26          1           0        3.972960    1.571670   -1.970310
     27          1           0        8.107111   -0.449949   -0.101500
     28          1           0       -0.632290    1.613460    2.350870
     29          8           0       -0.012850    0.028740   -0.200960
     30          8           0       -2.346930    0.214119   -0.977830
     31          6           0       -1.117491    6.338730   -0.791160
     32          8           0       -1.855399   -1.359461    0.951980
     33          6           0       -3.083130    2.321489   -3.107070
     34          6           0        3.777141   -1.273780    3.859060
     35          8           0       -1.720980    1.111889    1.398000
     36          6           0        2.190851   -2.072890   -0.838600
     37          6           0       -0.796959   -3.229670    3.123830
     38          6           0       -4.024850    3.179669    1.817260
     39          6           0       -2.603970    4.709929    0.429260
     40          6           0       -4.433959   -0.927021   -0.692560
     41          6           0       -6.434760    0.331509   -0.169280
     42          6           0       -2.147140    4.303559   -1.882500
     43          6           0       -1.970580    5.096609   -0.753140
     44          6           0       -2.588579   -2.858681   -0.760160
     45          6           0       -3.539780    2.765049   -0.648150
     46          6           0       -3.724870    0.261639   -0.765980
     47          6           0       -4.009919   -2.360591   -0.963350
     48          6           0       -2.922460    3.141789   -1.851320
     49          6           0       -4.225339   -2.747301   -2.455150
     50          6           0       -3.386240    3.559789    0.504580
     51          6           0       -5.787599   -0.884391   -0.345170
     52          6           0       -5.711430    1.514609   -0.311210
     53          6           0       -0.367129   -3.109820    0.212340
     54          6           0       -1.608309   -2.461641    0.136860
     55          6           0       -3.453789   -4.068861   -2.626410
     56          6           0       -4.339590    1.506579   -0.583430
     57          6           0       -1.102199   -4.579070   -1.591560
     58          6           0        0.698621   -2.648650    1.150970
     59          6           0       -2.309939   -3.897311   -1.653610
     60          6           0        1.488121   -2.233820    3.396960
     61          6           0       -0.151509   -4.190470   -0.649990
     62          6           0        0.486271   -2.692490    2.540810
     63          6           0        2.895641   -1.723140    1.537280
     64          6           0        1.919181   -2.163270    0.644070
     65          6           0        2.701041   -1.745920    2.916750
     66          6           0       -5.032219   -3.121621   -0.072160
     67          6           0       -6.324019   -2.287461   -0.171920
     68         15           0       -1.448600    0.082689    0.352570
     69          1           0       -0.687741    6.495000   -1.783070
     70          1           0       -1.701721    7.226759   -0.531710
     71          1           0       -0.295051    6.270290   -0.071980
     72          1           0       -2.466210    1.418359   -3.064210
     73          1           0       -2.781580    2.898699   -3.983910
     74          1           0       -4.120520    2.003959   -3.244060
     75          1           0        4.450311   -0.568390    3.362380
     76          1           0        3.342111   -0.770000    4.725070
     77          1           0        4.378401   -2.114520    4.220630
     78          1           0        2.418061   -3.050520   -1.274740
     79          1           0        1.327921   -1.663640   -1.369480
     80          1           0        3.060821   -1.432420   -1.022790
     81          1           0       -1.125069   -4.130330    2.597630
     82          1           0       -1.600079   -2.491001    3.045450
     83          1           0       -0.663159   -3.476510    4.179080
     84          1           0       -3.576370    3.749129    2.634450
     85          1           0       -5.099640    3.387659    1.818340
     86          1           0       -3.884700    2.116359    2.021220
     87          1           0       -2.475260    5.316709    1.323600
     88          1           0       -7.488200    0.363948    0.092130
     89          1           0       -1.672930    4.594069   -2.817620
     90          1           0       -3.772989   -1.972511   -3.083280
     91          1           0       -5.285279   -2.819791   -2.714290
     92          1           0       -6.205400    2.472759   -0.180700
     93          1           0       -3.109529   -4.230361   -3.651330
     94          1           0       -4.074869   -4.930921   -2.353820
     95          1           0       -0.890659   -5.393330   -2.278100
     96          1           0        1.313921   -2.259660    4.470270
     97          1           0        0.796941   -4.715710   -0.587690
     98          1           0        3.841741   -1.354460    1.141120
     99          1           0       -5.156969   -4.162841   -0.382600
    100          1           0       -4.666359   -3.114061    0.959950
    101          1           0       -6.959559   -2.383251    0.712360
    102          1           0       -6.926799   -2.588131   -1.037550
 ---------------------------------------------------------------------
 Rotational constants (GHZ):           0.0680393           0.0338289           0.0293182
 Leave Link  202 at Sat Oct 29 10:49:05 2022, MaxMem=  8053063680 cpu:               0.2 elap:               0.0
 (Enter /project/chenjingdan/g16/l301.exe)
 Standard basis: 6-31G(d,p) (6D, 7F)
 Ernie: Thresh=  0.10000D-02 Tol=  0.10000D-05 Strict=F.
  1084 basis functions,  1935 primitive gaussians,  1084 cartesian basis functions
   208 alpha electrons      208 beta electrons
       nuclear repulsion energy      8984.2849472432 Hartrees.
 IExCor= 4336 DFT=T Ex+Corr=M062X ExCW=0 ScaHFX=  0.540000
 ScaDFX=  1.000000  1.000000  1.000000  1.000000 ScalE2=  1.000000  1.000000
 IRadAn=      5 IRanWt=     -1 IRanGd=            0 ICorTp=0 IEmpDi=  4
 NAtoms=  102 NActive=  102 NUniq=  102 SFac= 1.00D+00 NAtFMM=   60 NAOKFM=T Big=T
 Integral buffers will be    131072 words long.
 Raffenetti 2 integral format.
 Two-electron integral symmetry is turned off.
 Leave Link  301 at Sat Oct 29 10:49:05 2022, MaxMem=  8053063680 cpu:               1.0 elap:               0.1
 (Enter /project/chenjingdan/g16/l302.exe)
 NPDir=0 NMtPBC=     1 NCelOv=     1 NCel=       1 NClECP=     1 NCelD=      1
         NCelK=      1 NCelE2=     1 NClLst=     1 CellRange=     0.0.
 One-electron integrals computed using PRISM.
 NBasis=  1084 RedAO= T EigKep=  2.35D-04  NBF=  1084
 NBsUse=  1084 1.00D-06 EigRej= -1.00D+00 NBFU=  1084
 Precomputing XC quadrature grid using
 IXCGrd= 4 IRadAn=           5 IRanWt=          -1 IRanGd=           0 AccXCQ= 0.00D+00.
 Generated NRdTot=       0 NPtTot=           0 NUsed=           0 NTot=          32
 NSgBfM=   982   982   982   982   982 MxSgAt=   102 MxSgA2=   102.
 Leave Link  302 at Sat Oct 29 10:49:08 2022, MaxMem=  8053063680 cpu:              36.1 elap:               2.3
 (Enter /project/chenjingdan/g16/l303.exe)
 DipDrv:  MaxL=1.
 Leave Link  303 at Sat Oct 29 10:49:08 2022, MaxMem=  8053063680 cpu:               2.0 elap:               0.2
 (Enter /project/chenjingdan/g16/l401.exe)
 ExpMin= 9.98D-02 ExpMax= 1.94D+04 ExpMxC= 2.91D+03 IAcc=3 IRadAn=         5 AccDes= 0.00D+00
 Harris functional with IExCor= 1009 and IRadAn=       5 diagonalized for initial guess.
 HarFok:  IExCor= 1009 AccDes= 0.00D+00 IRadAn=         5 IDoV= 1 UseB2=F ITyADJ=14
 ICtDFT=  3500011 ScaDFX=  1.000000  1.000000  1.000000  1.000000
 FoFCou: FMM=F IPFlag=           0 FMFlag=      100000 FMFlg1=        2001
         NFxFlg=           0 DoJE=T BraDBF=F KetDBF=T FulRan=T
         wScrn=  0.000000 ICntrl=       500 IOpCl=  0 I1Cent=   200000004 NGrid=           0
         NMat0=    1 NMatS0=      1 NMatT0=    0 NMatD0=    1 NMtDS0=    0 NMtDT0=    0
 Symmetry not used in FoFCou.
 Harris En= -2867.58730664338    
 JPrj=0 DoOrth=F DoCkMO=F.
 Leave Link  401 at Sat Oct 29 10:49:14 2022, MaxMem=  8053063680 cpu:             100.4 elap:               6.3
 (Enter /project/chenjingdan/g16/l502.exe)
 Two-electron integral symmetry not used.
 Closed shell SCF:
 Using DIIS extrapolation, IDIIS=  1040.
 NGot=  8053063680 LenX=  8050685130 LenY=  8049508990
 Requested convergence on RMS density matrix=1.00D-08 within 128 cycles.
 Requested convergence on MAX density matrix=1.00D-06.
 Requested convergence on             energy=1.00D-06.
 No special actions if energy rises.
 Fock matrices will be formed incrementally for  20 cycles.
 Integral accuracy reduced to 1.0D-05 until final iterations.

 Cycle   1  Pass 0  IDiag  1:
 FoFJK:  IHMeth= 1 ICntrl=       0 DoSepK=F KAlg= 0 I1Cent=           0 FoldK=F
 IRaf= 730000000 NMat=       1 IRICut=       1 DoRegI=T DoRafI=F ISym2E= 0 IDoP0=0 IntGTp=1.
 FoFCou: FMM=T IPFlag=           0 FMFlag=      100000 FMFlg1=        2001
         NFxFlg=           0 DoJE=F BraDBF=F KetDBF=F FulRan=T
         wScrn=  0.000000 ICntrl=         0 IOpCl=  0 I1Cent=           0 NGrid=           0
         NMat0=    1 NMatS0=      1 NMatT0=    0 NMatD0=    1 NMtDS0=    0 NMtDT0=    0
 Symmetry not used in FoFCou.
 FMM levels:  10  Number of levels for PrismC:   9
 E= -2867.38866640757    
 DIIS: error= 1.79D-02 at cycle   1 NSaved=   1.
 NSaved= 1 IEnMin= 1 EnMin= -2867.38866640757     IErMin= 1 ErrMin= 1.79D-02
 ErrMax= 1.79D-02  0.00D+00 EMaxC= 1.00D-01 BMatC= 1.73D+00 BMatP= 1.73D+00
 IDIUse=3 WtCom= 8.21D-01 WtEn= 1.79D-01
 Coeff-Com:  0.100D+01
 Coeff-En:   0.100D+01
 Coeff:      0.100D+01
 Gap=     0.178 Goal=   None    Shift=    0.000
 GapD=    0.178 DampG=1.000 DampE=0.500 DampFc=0.5000 IDamp=-1.
 Damping current iteration by 5.00D-01
 RMSDP=2.16D-03 MaxDP=2.41D-01              OVMax= 2.58D-01

 Cycle   2  Pass 0  IDiag  1:
 RMSU=  1.06D-03    CP:  9.81D-01
 E= -2868.10708857257     Delta-E=       -0.718422165004 Rises=F Damp=T
 DIIS: error= 8.34D-03 at cycle   2 NSaved=   2.
 NSaved= 2 IEnMin= 2 EnMin= -2868.10708857257     IErMin= 2 ErrMin= 8.34D-03
 ErrMax= 8.34D-03  0.00D+00 EMaxC= 1.00D-01 BMatC= 1.44D-01 BMatP= 1.73D+00
 IDIUse=3 WtCom= 9.17D-01 WtEn= 8.34D-02
 Coeff-Com: -0.481D-01 0.105D+01
 Coeff-En:   0.000D+00 0.100D+01
 Coeff:     -0.441D-01 0.104D+01
 Gap=     0.220 Goal=   None    Shift=    0.000
 RMSDP=6.52D-04 MaxDP=9.11D-02 DE=-7.18D-01 OVMax= 2.00D-01

 Cycle   3  Pass 0  IDiag  1:
 RMSU=  6.33D-04    CP:  9.69D-01  1.09D+00
 E= -2868.78168507968     Delta-E=       -0.674596507110 Rises=F Damp=F
 DIIS: error= 6.79D-03 at cycle   3 NSaved=   3.
 NSaved= 3 IEnMin= 3 EnMin= -2868.78168507968     IErMin= 3 ErrMin= 6.79D-03
 ErrMax= 6.79D-03  0.00D+00 EMaxC= 1.00D-01 BMatC= 7.85D-02 BMatP= 1.44D-01
 IDIUse=3 WtCom= 9.32D-01 WtEn= 6.79D-02
 Coeff-Com: -0.865D-01 0.462D+00 0.625D+00
 Coeff-En:   0.000D+00 0.000D+00 0.100D+01
 Coeff:     -0.806D-01 0.430D+00 0.650D+00
 Gap=     0.202 Goal=   None    Shift=    0.000
 RMSDP=3.21D-04 MaxDP=4.43D-02 DE=-6.75D-01 OVMax= 6.59D-02

 Cycle   4  Pass 0  IDiag  1:
 RMSU=  2.42D-04    CP:  9.71D-01  1.15D+00  6.84D-01
 E= -2868.83216724143     Delta-E=       -0.050482161747 Rises=F Damp=F
 DIIS: error= 2.92D-03 at cycle   4 NSaved=   4.
 NSaved= 4 IEnMin= 4 EnMin= -2868.83216724143     IErMin= 4 ErrMin= 2.92D-03
 ErrMax= 2.92D-03  0.00D+00 EMaxC= 1.00D-01 BMatC= 1.40D-02 BMatP= 7.85D-02
 IDIUse=3 WtCom= 9.71D-01 WtEn= 2.92D-02
 Coeff-Com: -0.271D-01 0.826D-01 0.329D+00 0.616D+00
 Coeff-En:   0.000D+00 0.000D+00 0.145D+00 0.855D+00
 Coeff:     -0.263D-01 0.801D-01 0.323D+00 0.623D+00
 Gap=     0.197 Goal=   None    Shift=    0.000
 RMSDP=1.32D-04 MaxDP=1.05D-02 DE=-5.05D-02 OVMax= 1.65D-02

 Cycle   5  Pass 0  IDiag  1:
 RMSU=  6.09D-05    CP:  9.70D-01  1.15D+00  7.80D-01  5.88D-01
 E= -2868.84330633912     Delta-E=       -0.011139097693 Rises=F Damp=F
 DIIS: error= 3.95D-04 at cycle   5 NSaved=   5.
 NSaved= 5 IEnMin= 5 EnMin= -2868.84330633912     IErMin= 5 ErrMin= 3.95D-04
 ErrMax= 3.95D-04  0.00D+00 EMaxC= 1.00D-01 BMatC= 8.42D-04 BMatP= 1.40D-02
 IDIUse=3 WtCom= 9.96D-01 WtEn= 3.95D-03
 Coeff-Com: -0.942D-02 0.215D-01 0.138D+00 0.322D+00 0.528D+00
 Coeff-En:   0.000D+00 0.000D+00 0.000D+00 0.000D+00 0.100D+01
 Coeff:     -0.939D-02 0.214D-01 0.137D+00 0.321D+00 0.530D+00
 Gap=     0.198 Goal=   None    Shift=    0.000
 RMSDP=3.55D-05 MaxDP=2.52D-03 DE=-1.11D-02 OVMax= 4.79D-03

 Cycle   6  Pass 0  IDiag  1:
 RMSU=  1.86D-05    CP:  9.70D-01  1.15D+00  7.76D-01  6.54D-01  5.86D-01
 E= -2868.84407065583     Delta-E=       -0.000764316708 Rises=F Damp=F
 DIIS: error= 2.36D-04 at cycle   6 NSaved=   6.
 NSaved= 6 IEnMin= 6 EnMin= -2868.84407065583     IErMin= 6 ErrMin= 2.36D-04
 ErrMax= 2.36D-04  0.00D+00 EMaxC= 1.00D-01 BMatC= 5.63D-05 BMatP= 8.42D-04
 IDIUse=3 WtCom= 9.98D-01 WtEn= 2.36D-03
 Coeff-Com: -0.149D-02 0.175D-02 0.307D-01 0.844D-01 0.250D+00 0.634D+00
 Coeff-En:   0.000D+00 0.000D+00 0.000D+00 0.000D+00 0.000D+00 0.100D+01
 Coeff:     -0.149D-02 0.175D-02 0.307D-01 0.842D-01 0.250D+00 0.635D+00
 Gap=     0.198 Goal=   None    Shift=    0.000
 RMSDP=9.39D-06 MaxDP=1.25D-03 DE=-7.64D-04 OVMax= 1.60D-03

 Cycle   7  Pass 0  IDiag  1:
 RMSU=  5.90D-06    CP:  9.70D-01  1.15D+00  7.81D-01  6.51D-01  6.62D-01
                    CP:  7.61D-01
 E= -2868.84412919490     Delta-E=       -0.000058539074 Rises=F Damp=F
 DIIS: error= 1.22D-04 at cycle   7 NSaved=   7.
 NSaved= 7 IEnMin= 7 EnMin= -2868.84412919490     IErMin= 7 ErrMin= 1.22D-04
 ErrMax= 1.22D-04  0.00D+00 EMaxC= 1.00D-01 BMatC= 8.28D-06 BMatP= 5.63D-05
 IDIUse=3 WtCom= 9.99D-01 WtEn= 1.22D-03
 Coeff-Com:  0.336D-03-0.167D-02 0.185D-03 0.692D-02 0.768D-01 0.334D+00
 Coeff-Com:  0.583D+00
 Coeff-En:   0.000D+00 0.000D+00 0.000D+00 0.000D+00 0.000D+00 0.000D+00
 Coeff-En:   0.100D+01
 Coeff:      0.335D-03-0.167D-02 0.185D-03 0.691D-02 0.768D-01 0.334D+00
 Coeff:      0.584D+00
 Gap=     0.198 Goal=   None    Shift=    0.000
 RMSDP=3.59D-06 MaxDP=5.40D-04 DE=-5.85D-05 OVMax= 8.24D-04

 Initial convergence to 1.0D-05 achieved.  Increase integral accuracy.
 Cycle   8  Pass 1  IDiag  1:
 E= -2868.84392385932     Delta-E=        0.000205335580 Rises=F Damp=F
 DIIS: error= 3.16D-04 at cycle   1 NSaved=   1.
 NSaved= 1 IEnMin= 1 EnMin= -2868.84392385932     IErMin= 1 ErrMin= 3.16D-04
 ErrMax= 3.16D-04  0.00D+00 EMaxC= 1.00D-01 BMatC= 5.48D-05 BMatP= 5.48D-05
 IDIUse=3 WtCom= 9.97D-01 WtEn= 3.16D-03
 Coeff-Com:  0.100D+01
 Coeff-En:   0.100D+01
 Coeff:      0.100D+01
 Gap=     0.198 Goal=   None    Shift=    0.000
 RMSDP=3.59D-06 MaxDP=5.40D-04 DE= 2.05D-04 OVMax= 9.56D-04

 Cycle   9  Pass 1  IDiag  1:
 RMSU=  1.25D-04    CP:  1.00D+00
 E= -2868.84396797851     Delta-E=       -0.000044119190 Rises=F Damp=F
 DIIS: error= 1.07D-04 at cycle   2 NSaved=   2.
 NSaved= 2 IEnMin= 2 EnMin= -2868.84396797851     IErMin= 2 ErrMin= 1.07D-04
 ErrMax= 1.07D-04  0.00D+00 EMaxC= 1.00D-01 BMatC= 3.22D-06 BMatP= 5.48D-05
 IDIUse=3 WtCom= 9.99D-01 WtEn= 1.07D-03
 Coeff-Com:  0.626D-01 0.937D+00
 Coeff-En:   0.000D+00 0.100D+01
 Coeff:      0.626D-01 0.937D+00
 Gap=     0.198 Goal=   None    Shift=    0.000
 RMSDP=5.03D-06 MaxDP=8.13D-04 DE=-4.41D-05 OVMax= 1.62D-03

 Cycle  10  Pass 1  IDiag  1:
 RMSU=  3.91D-06    CP:  1.00D+00  1.03D+00
 E= -2868.84396320601     Delta-E=        0.000004772501 Rises=F Damp=F
 DIIS: error= 1.90D-04 at cycle   3 NSaved=   3.
 NSaved= 3 IEnMin= 2 EnMin= -2868.84396797851     IErMin= 2 ErrMin= 1.07D-04
 ErrMax= 1.90D-04  0.00D+00 EMaxC= 1.00D-01 BMatC= 9.48D-06 BMatP= 3.22D-06
 IDIUse=3 WtCom= 4.20D-01 WtEn= 5.80D-01
 Coeff-Com: -0.143D-01 0.640D+00 0.374D+00
 Coeff-En:   0.000D+00 0.698D+00 0.302D+00
 Coeff:     -0.599D-02 0.674D+00 0.332D+00
 Gap=     0.198 Goal=   None    Shift=    0.000
 RMSDP=2.10D-06 MaxDP=4.87D-04 DE= 4.77D-06 OVMax= 7.59D-04

 Cycle  11  Pass 1  IDiag  1:
 RMSU=  6.96D-07    CP:  1.00D+00  1.03D+00  4.98D-01
 E= -2868.84397048858     Delta-E=       -0.000007282571 Rises=F Damp=F
 DIIS: error= 1.84D-05 at cycle   4 NSaved=   4.
 NSaved= 4 IEnMin= 4 EnMin= -2868.84397048858     IErMin= 4 ErrMin= 1.84D-05
 ErrMax= 1.84D-05  0.00D+00 EMaxC= 1.00D-01 BMatC= 1.22D-07 BMatP= 3.22D-06
 IDIUse=1 WtCom= 1.00D+00 WtEn= 0.00D+00
 Coeff-Com: -0.742D-02 0.294D+00 0.110D+00 0.604D+00
 Coeff:     -0.742D-02 0.294D+00 0.110D+00 0.604D+00
 Gap=     0.198 Goal=   None    Shift=    0.000
 RMSDP=3.27D-07 MaxDP=4.43D-05 DE=-7.28D-06 OVMax= 8.10D-05

 Cycle  12  Pass 1  IDiag  1:
 RMSU=  1.98D-07    CP:  1.00D+00  1.03D+00  4.35D-01  1.07D+00
 E= -2868.84397058949     Delta-E=       -0.000000100910 Rises=F Damp=F
 DIIS: error= 1.54D-06 at cycle   5 NSaved=   5.
 NSaved= 5 IEnMin= 5 EnMin= -2868.84397058949     IErMin= 5 ErrMin= 1.54D-06
 ErrMax= 1.54D-06  0.00D+00 EMaxC= 1.00D-01 BMatC= 3.03D-09 BMatP= 1.22D-07
 IDIUse=1 WtCom= 1.00D+00 WtEn= 0.00D+00
 Coeff-Com: -0.478D-03 0.613D-02-0.214D-01 0.243D+00 0.773D+00
 Coeff:     -0.478D-03 0.613D-02-0.214D-01 0.243D+00 0.773D+00
 Gap=     0.198 Goal=   None    Shift=    0.000
 RMSDP=9.33D-08 MaxDP=6.56D-06 DE=-1.01D-07 OVMax= 1.73D-05

 Cycle  13  Pass 1  IDiag  1:
 RMSU=  7.12D-08    CP:  1.00D+00  1.03D+00  4.40D-01  1.14D+00  8.74D-01
 E= -2868.84397059264     Delta-E=       -0.000000003145 Rises=F Damp=F
 DIIS: error= 6.13D-07 at cycle   6 NSaved=   6.
 NSaved= 6 IEnMin= 6 EnMin= -2868.84397059264     IErMin= 6 ErrMin= 6.13D-07
 ErrMax= 6.13D-07  0.00D+00 EMaxC= 1.00D-01 BMatC= 7.18D-10 BMatP= 3.03D-09
 IDIUse=1 WtCom= 1.00D+00 WtEn= 0.00D+00
 Coeff-Com:  0.852D-03-0.404D-01-0.282D-01 0.450D-01 0.411D+00 0.611D+00
 Coeff:      0.852D-03-0.404D-01-0.282D-01 0.450D-01 0.411D+00 0.611D+00
 Gap=     0.198 Goal=   None    Shift=    0.000
 RMSDP=3.76D-08 MaxDP=3.13D-06 DE=-3.15D-09 OVMax= 7.26D-06

 Cycle  14  Pass 1  IDiag  1:
 RMSU=  3.05D-08    CP:  1.00D+00  1.03D+00  4.40D-01  1.16D+00  9.57D-01
                    CP:  8.77D-01
 E= -2868.84397059339     Delta-E=       -0.000000000757 Rises=F Damp=F
 DIIS: error= 1.25D-07 at cycle   7 NSaved=   7.
 NSaved= 7 IEnMin= 7 EnMin= -2868.84397059339     IErMin= 7 ErrMin= 1.25D-07
 ErrMax= 1.25D-07  0.00D+00 EMaxC= 1.00D-01 BMatC= 5.56D-11 BMatP= 7.18D-10
 IDIUse=1 WtCom= 1.00D+00 WtEn= 0.00D+00
 Coeff-Com:  0.386D-03-0.167D-01-0.922D-02-0.553D-02 0.834D-01 0.249D+00
 Coeff-Com:  0.698D+00
 Coeff:      0.386D-03-0.167D-01-0.922D-02-0.553D-02 0.834D-01 0.249D+00
 Coeff:      0.698D+00
 Gap=     0.198 Goal=   None    Shift=    0.000
 RMSDP=1.35D-08 MaxDP=1.20D-06 DE=-7.57D-10 OVMax= 2.94D-06

 Cycle  15  Pass 1  IDiag  1:
 RMSU=  1.05D-08    CP:  1.00D+00  1.03D+00  4.41D-01  1.16D+00  9.58D-01
                    CP:  9.85D-01  1.02D+00
 E= -2868.84397059342     Delta-E=       -0.000000000025 Rises=F Damp=F
 DIIS: error= 5.61D-08 at cycle   8 NSaved=   8.
 NSaved= 8 IEnMin= 8 EnMin= -2868.84397059342     IErMin= 8 ErrMin= 5.61D-08
 ErrMax= 5.61D-08  0.00D+00 EMaxC= 1.00D-01 BMatC= 1.22D-11 BMatP= 5.56D-11
 IDIUse=1 WtCom= 1.00D+00 WtEn= 0.00D+00
 Coeff-Com: -0.316D-04 0.222D-02 0.267D-02-0.134D-01-0.661D-01-0.378D-01
 Coeff-Com:  0.320D+00 0.793D+00
 Coeff:     -0.316D-04 0.222D-02 0.267D-02-0.134D-01-0.661D-01-0.378D-01
 Coeff:      0.320D+00 0.793D+00
 Gap=     0.198 Goal=   None    Shift=    0.000
 RMSDP=7.25D-09 MaxDP=7.18D-07 DE=-2.55D-11 OVMax= 1.59D-06

 SCF Done:  E(RM062X) =  -2868.84397059     A.U. after   15 cycles
            NFock= 15  Conv=0.73D-08     -V/T= 2.0079
 KE= 2.846330816677D+03 PE=-2.465958109018D+04 EE= 9.960121355668D+03
 Leave Link  502 at Sat Oct 29 10:53:49 2022, MaxMem=  8053063680 cpu:            4385.7 elap:             274.7
 (Enter /project/chenjingdan/g16/l801.exe)
 DoSCS=F DFT=T ScalE2(SS,OS)=  1.000000  1.000000
 Range of M.O.s used for correlation:     1  1084
 NBasis=  1084 NAE=   208 NBE=   208 NFC=     0 NFV=     0
 NROrb=   1084 NOA=   208 NOB=   208 NVA=   876 NVB=   876
 Leave Link  801 at Sat Oct 29 10:53:49 2022, MaxMem=  8053063680 cpu:               0.8 elap:               0.1
 (Enter /project/chenjingdan/g16/l1101.exe)
 Using compressed storage, NAtomX=   102.
 Will process    103 centers per pass.
 Leave Link 1101 at Sat Oct 29 10:53:55 2022, MaxMem=  8053063680 cpu:              72.1 elap:               4.8
 (Enter /project/chenjingdan/g16/l1102.exe)
 Symmetrizing basis deriv contribution to polar:
 IMax=3 JMax=2 DiffMx= 0.00D+00
 Leave Link 1102 at Sat Oct 29 10:53:55 2022, MaxMem=  8053063680 cpu:               2.6 elap:               0.2
 (Enter /project/chenjingdan/g16/l1110.exe)
 Forming Gx(P) for the SCF density, NAtomX=   102.
 Integral derivatives from FoFJK, PRISM(SPDF).
 Do as many integral derivatives as possible in FoFJK.
 G2DrvN: MDV=    8053053038.
 G2DrvN: will do   103 centers at a time, making    1 passes.
 Calling FoFCou, ICntrl=  3107 FMM=T I1Cent=   0 AccDes= 0.00D+00.
 FoFJK:  IHMeth= 1 ICntrl=    3107 DoSepK=F KAlg= 0 I1Cent=           0 FoldK=F
 IRaf=         0 NMat=       1 IRICut=       1 DoRegI=T DoRafI=F ISym2E= 0 IDoP0=0 IntGTp=1.
 FoFCou: FMM=T IPFlag=           0 FMFlag=      100000 FMFlg1=        2001
         NFxFlg=           0 DoJE=F BraDBF=F KetDBF=F FulRan=T
         wScrn=  0.000000 ICntrl=      3107 IOpCl=  0 I1Cent=           0 NGrid=           0
         NMat0=    1 NMatS0=      1 NMatT0=    0 NMatD0=    1 NMtDS0=    0 NMtDT0=    0
 Symmetry not used in FoFCou.
 FMM levels:  10  Number of levels for PrismC:   9
 End of G2Drv F.D. properties file   721 does not exist.
 End of G2Drv F.D. properties file   722 does not exist.
 End of G2Drv F.D. properties file   788 does not exist.
 Leave Link 1110 at Sat Oct 29 11:23:07 2022, MaxMem=  8053063680 cpu:           27993.3 elap:            1750.0
 (Enter /project/chenjingdan/g16/l1002.exe)
 Minotr:  Closed shell wavefunction.
          IDoAtm=11111111111111111111111111111111111111111111111111
          IDoAtm=11111111111111111111111111111111111111111111111111
          IDoAtm=11
          Direct CPHF calculation.
          Differentiating once with respect to nuclear coordinates.
          Requested convergence is 1.0D-08 RMS, and 1.0D-07 maximum.
          Secondary convergence is 1.0D-12 RMS, and 1.0D-12 maximum.
          NewPWx=T KeepS1=F KeepF1=F KeepIn=T MapXYZ=F SortEE=F KeepMc=T.
        31104 words used for storage of precomputed grid.
 Two-electron integral symmetry not used.
          MDV=    8053063680 using IRadAn=       1.
          Solving linear equations simultaneously, MaxMat=      72.
 FoF2E skips out because all densities are zero.
 CalDSu exits because no D1Ps are significant.
 FoFJK:  IHMeth= 1 ICntrl=       0 DoSepK=F KAlg= 0 I1Cent=           0 FoldK=F
 IRaf= 660000000 NMat=      72 IRICut=       1 DoRegI=T DoRafI=F ISym2E= 0 IDoP0=0 IntGTp=1.
 FoFCou: FMM=T IPFlag=           0 FMFlag=      100000 FMFlg1=        2001
         NFxFlg=           0 DoJE=F BraDBF=F KetDBF=F FulRan=T
         wScrn=  0.000000 ICntrl=         0 IOpCl=  0 I1Cent=           0 NGrid=           0
         NMat0=   72 NMatS0=     72 NMatT0=    0 NMatD0=   72 NMtDS0=    0 NMtDT0=    0
 Symmetry not used in FoFCou.
 FMM levels:  10  Number of levels for PrismC:   9
          There are   309 degrees of freedom in the 1st order CPHF.  IDoFFX=6 NUNeed=     0.
    304 vectors produced by pass  0 Test12= 1.82D-13 1.00D-09 XBig12= 1.99D-01 1.12D-01.
 AX will form    72 AO Fock derivatives at one time.
    303 vectors produced by pass  1 Test12= 1.82D-13 1.00D-09 XBig12= 6.39D-02 8.33D-02.
    303 vectors produced by pass  2 Test12= 1.82D-13 1.00D-09 XBig12= 2.25D-03 8.63D-03.
    303 vectors produced by pass  3 Test12= 1.82D-13 1.00D-09 XBig12= 2.13D-05 5.47D-04.
    303 vectors produced by pass  4 Test12= 1.82D-13 1.00D-09 XBig12= 1.94D-07 4.70D-05.
    303 vectors produced by pass  5 Test12= 1.82D-13 1.00D-09 XBig12= 8.90D-10 3.06D-06.
    191 vectors produced by pass  6 Test12= 1.82D-13 1.00D-09 XBig12= 2.51D-12 1.67D-07.
     15 vectors produced by pass  7 Test12= 1.82D-13 1.00D-09 XBig12= 9.21D-15 6.53D-09.
      2 vectors produced by pass  8 Test12= 1.82D-13 1.00D-09 XBig12= 3.19D-15 1.72D-09.
 InvSVY:  IOpt=1 It=  1 EMax= 4.44D-16
 Solved reduced A of dimension  2027 with   309 vectors.
 End of Minotr F.D. properties file   721 does not exist.
 End of Minotr F.D. properties file   722 does not exist.
 End of Minotr F.D. properties file   788 does not exist.
 Leave Link 1002 at Sat Oct 29 12:53:38 2022, MaxMem=  8053063680 cpu:           86861.6 elap:            5430.5
 (Enter /project/chenjingdan/g16/l601.exe)
 Copying SCF densities to generalized density rwf, IOpCl= 0 IROHF=0.
 Hyperfine terms turned off by default for NAtoms > 100.

 **********************************************************************

            Population analysis using the SCF Density.

 **********************************************************************

 Alpha  occ. eigenvalues --  -78.21664 -19.68855 -19.68837 -19.68837 -19.68630
 Alpha  occ. eigenvalues --  -19.67707 -19.67203 -19.65396 -19.64824 -19.62235
 Alpha  occ. eigenvalues --  -15.02426 -14.82956 -10.70766 -10.69635 -10.63546
 Alpha  occ. eigenvalues --  -10.61920 -10.61856 -10.60834 -10.60332 -10.60132
 Alpha  occ. eigenvalues --  -10.59919 -10.59564 -10.58197 -10.57818 -10.56387
 Alpha  occ. eigenvalues --  -10.56245 -10.56099 -10.56054 -10.56018 -10.55978
 Alpha  occ. eigenvalues --  -10.55746 -10.55655 -10.55646 -10.55596 -10.55480
 Alpha  occ. eigenvalues --  -10.55475 -10.55429 -10.55406 -10.55375 -10.55208
 Alpha  occ. eigenvalues --  -10.55157 -10.55054 -10.55018 -10.54997 -10.54990
 Alpha  occ. eigenvalues --  -10.54964 -10.54702 -10.53984 -10.53892 -10.53812
 Alpha  occ. eigenvalues --  -10.53573 -10.53529 -10.53427 -10.53374 -10.53235
 Alpha  occ. eigenvalues --  -10.52928 -10.52543  -6.99707  -5.11505  -5.11454
 Alpha  occ. eigenvalues --   -5.11384  -1.37906  -1.25135  -1.23835  -1.20203
 Alpha  occ. eigenvalues --   -1.19310  -1.18265  -1.16204  -1.14333  -1.09565
 Alpha  occ. eigenvalues --   -1.07192  -1.01867  -1.00189  -0.97803  -0.96636
 Alpha  occ. eigenvalues --   -0.95865  -0.93507  -0.93263  -0.90707  -0.89226
 Alpha  occ. eigenvalues --   -0.88377  -0.87978  -0.87367  -0.87202  -0.86992
 Alpha  occ. eigenvalues --   -0.85963  -0.84262  -0.82364  -0.82322  -0.82036
 Alpha  occ. eigenvalues --   -0.79536  -0.78622  -0.78372  -0.77442  -0.76295
 Alpha  occ. eigenvalues --   -0.76204  -0.76080  -0.75831  -0.75030  -0.73987
 Alpha  occ. eigenvalues --   -0.72863  -0.71778  -0.71548  -0.71150  -0.69568
 Alpha  occ. eigenvalues --   -0.67766  -0.67725  -0.67184  -0.66818  -0.64784
 Alpha  occ. eigenvalues --   -0.64764  -0.64453  -0.64387  -0.64103  -0.63605
 Alpha  occ. eigenvalues --   -0.63386  -0.62348  -0.61758  -0.61294  -0.60708
 Alpha  occ. eigenvalues --   -0.59531  -0.58073  -0.57679  -0.56948  -0.56683
 Alpha  occ. eigenvalues --   -0.56272  -0.56075  -0.55827  -0.55475  -0.55353
 Alpha  occ. eigenvalues --   -0.54729  -0.54456  -0.53931  -0.53532  -0.53459
 Alpha  occ. eigenvalues --   -0.53279  -0.53133  -0.52129  -0.51512  -0.51008
 Alpha  occ. eigenvalues --   -0.50393  -0.50007  -0.49517  -0.49109  -0.48941
 Alpha  occ. eigenvalues --   -0.48727  -0.48704  -0.48270  -0.48088  -0.47891
 Alpha  occ. eigenvalues --   -0.47746  -0.47332  -0.47230  -0.46935  -0.46803
 Alpha  occ. eigenvalues --   -0.46634  -0.46504  -0.46104  -0.45962  -0.45908
 Alpha  occ. eigenvalues --   -0.45702  -0.45479  -0.45324  -0.45186  -0.45042
 Alpha  occ. eigenvalues --   -0.44897  -0.44801  -0.44538  -0.44034  -0.43555
 Alpha  occ. eigenvalues --   -0.43498  -0.43189  -0.42287  -0.42095  -0.41847
 Alpha  occ. eigenvalues --   -0.41794  -0.41538  -0.41408  -0.41148  -0.40022
 Alpha  occ. eigenvalues --   -0.39999  -0.39675  -0.39635  -0.39303  -0.39049
 Alpha  occ. eigenvalues --   -0.38921  -0.38832  -0.38666  -0.38659  -0.38272
 Alpha  occ. eigenvalues --   -0.38145  -0.38044  -0.37850  -0.37757  -0.37212
 Alpha  occ. eigenvalues --   -0.36933  -0.36164  -0.35368  -0.34879  -0.30552
 Alpha  occ. eigenvalues --   -0.30232  -0.29910  -0.28716  -0.28148  -0.27996
 Alpha  occ. eigenvalues --   -0.27840  -0.26902  -0.26831
 Alpha virt. eigenvalues --   -0.06999  -0.01368   0.00348   0.01286   0.01436
 Alpha virt. eigenvalues --    0.02233   0.02551   0.03659   0.04393   0.04658
 Alpha virt. eigenvalues --    0.05155   0.05293   0.07727   0.08629   0.10786
 Alpha virt. eigenvalues --    0.11639   0.12364   0.13215   0.13834   0.14131
 Alpha virt. eigenvalues --    0.14454   0.15296   0.15366   0.15824   0.16136
 Alpha virt. eigenvalues --    0.16371   0.16912   0.16959   0.17250   0.17334
 Alpha virt. eigenvalues --    0.17514   0.18039   0.18189   0.18477   0.18566
 Alpha virt. eigenvalues --    0.18776   0.18903   0.19021   0.19316   0.19714
 Alpha virt. eigenvalues --    0.19936   0.19965   0.20328   0.20498   0.20741
 Alpha virt. eigenvalues --    0.20893   0.21148   0.21209   0.21612   0.22126
 Alpha virt. eigenvalues --    0.22264   0.22343   0.22478   0.22599   0.22918
 Alpha virt. eigenvalues --    0.23204   0.23516   0.23916   0.24226   0.24580
 Alpha virt. eigenvalues --    0.24867   0.25081   0.25094   0.25172   0.25400
 Alpha virt. eigenvalues --    0.25969   0.26414   0.26680   0.26769   0.27028
 Alpha virt. eigenvalues --    0.27696   0.28134   0.28275   0.28639   0.28922
 Alpha virt. eigenvalues --    0.29110   0.29250   0.29658   0.29939   0.30433
 Alpha virt. eigenvalues --    0.30617   0.30990   0.31009   0.31208   0.31492
 Alpha virt. eigenvalues --    0.31760   0.31926   0.32532   0.32908   0.33242
 Alpha virt. eigenvalues --    0.33623   0.34439   0.34946   0.35503   0.36760
 Alpha virt. eigenvalues --    0.37325   0.37506   0.37993   0.38802   0.38924
 Alpha virt. eigenvalues --    0.39521   0.40208   0.40812   0.41160   0.41552
 Alpha virt. eigenvalues --    0.41715   0.41784   0.42251   0.42475   0.42852
 Alpha virt. eigenvalues --    0.43139   0.43636   0.44226   0.44626   0.45585
 Alpha virt. eigenvalues --    0.46037   0.46494   0.46914   0.47209   0.47865
 Alpha virt. eigenvalues --    0.49686   0.50822   0.51866   0.52254   0.52791
 Alpha virt. eigenvalues --    0.52957   0.53293   0.53585   0.53796   0.54020
 Alpha virt. eigenvalues --    0.54734   0.55058   0.55160   0.55520   0.55662
 Alpha virt. eigenvalues --    0.56134   0.56422   0.56515   0.56858   0.57128
 Alpha virt. eigenvalues --    0.57464   0.57774   0.57940   0.58298   0.58664
 Alpha virt. eigenvalues --    0.58958   0.59067   0.59161   0.59401   0.59592
 Alpha virt. eigenvalues --    0.59893   0.60390   0.60638   0.60814   0.60953
 Alpha virt. eigenvalues --    0.61097   0.61666   0.61724   0.61889   0.62177
 Alpha virt. eigenvalues --    0.62513   0.62788   0.62923   0.62996   0.63215
 Alpha virt. eigenvalues --    0.63483   0.63885   0.64082   0.64329   0.64536
 Alpha virt. eigenvalues --    0.65016   0.65326   0.65412   0.65538   0.66203
 Alpha virt. eigenvalues --    0.66259   0.66490   0.67006   0.67084   0.67708
 Alpha virt. eigenvalues --    0.68245   0.68439   0.69005   0.69317   0.69674
 Alpha virt. eigenvalues --    0.70291   0.70464   0.70743   0.71119   0.71531
 Alpha virt. eigenvalues --    0.72181   0.72776   0.73107   0.73332   0.73635
 Alpha virt. eigenvalues --    0.74000   0.74086   0.74271   0.74796   0.75087
 Alpha virt. eigenvalues --    0.75381   0.76119   0.76518   0.76791   0.77169
 Alpha virt. eigenvalues --    0.77582   0.77860   0.78269   0.78367   0.78936
 Alpha virt. eigenvalues --    0.79212   0.79382   0.79745   0.80163   0.80380
 Alpha virt. eigenvalues --    0.80929   0.81038   0.81399   0.81604   0.82218
 Alpha virt. eigenvalues --    0.82273   0.82632   0.82825   0.82903   0.83146
 Alpha virt. eigenvalues --    0.83819   0.84016   0.84360   0.84671   0.84994
 Alpha virt. eigenvalues --    0.85446   0.85537   0.85735   0.85951   0.86697
 Alpha virt. eigenvalues --    0.87115   0.87229   0.87397   0.87680   0.87911
 Alpha virt. eigenvalues --    0.88277   0.88412   0.88774   0.89078   0.89257
 Alpha virt. eigenvalues --    0.89606   0.89863   0.90035   0.90397   0.90504
 Alpha virt. eigenvalues --    0.90828   0.91307   0.91504   0.92364   0.92427
 Alpha virt. eigenvalues --    0.92529   0.92986   0.93603   0.93950   0.94359
 Alpha virt. eigenvalues --    0.94463   0.94646   0.95012   0.95327   0.95377
 Alpha virt. eigenvalues --    0.96032   0.96247   0.96917   0.97233   0.97414
 Alpha virt. eigenvalues --    0.97630   0.97743   0.97843   0.97981   0.98264
 Alpha virt. eigenvalues --    0.98862   0.99114   0.99390   0.99572   0.99753
 Alpha virt. eigenvalues --    1.00117   1.00566   1.00864   1.01040   1.01442
 Alpha virt. eigenvalues --    1.01541   1.01972   1.02271   1.02543   1.02677
 Alpha virt. eigenvalues --    1.03115   1.04014   1.04126   1.04425   1.05045
 Alpha virt. eigenvalues --    1.05385   1.05718   1.06074   1.06522   1.06598
 Alpha virt. eigenvalues --    1.06952   1.07006   1.08013   1.08799   1.08814
 Alpha virt. eigenvalues --    1.09429   1.09535   1.09683   1.10007   1.10282
 Alpha virt. eigenvalues --    1.10928   1.11527   1.11840   1.12601   1.12909
 Alpha virt. eigenvalues --    1.13856   1.14234   1.14393   1.14805   1.15389
 Alpha virt. eigenvalues --    1.15499   1.16248   1.17033   1.17374   1.17841
 Alpha virt. eigenvalues --    1.18881   1.19019   1.19277   1.19515   1.20096
 Alpha virt. eigenvalues --    1.20271   1.21161   1.21250   1.22174   1.22526
 Alpha virt. eigenvalues --    1.22790   1.23490   1.23759   1.24173   1.24747
 Alpha virt. eigenvalues --    1.25596   1.25769   1.26324   1.26591   1.27148
 Alpha virt. eigenvalues --    1.27230   1.27709   1.28715   1.29079   1.29301
 Alpha virt. eigenvalues --    1.29986   1.30574   1.30653   1.30823   1.31408
 Alpha virt. eigenvalues --    1.31709   1.32174   1.32719   1.33083   1.34213
 Alpha virt. eigenvalues --    1.34726   1.34738   1.35243   1.35993   1.36535
 Alpha virt. eigenvalues --    1.37086   1.37415   1.37692   1.38466   1.38607
 Alpha virt. eigenvalues --    1.39373   1.39612   1.39788   1.40020   1.40213
 Alpha virt. eigenvalues --    1.40550   1.40807   1.41302   1.41974   1.42073
 Alpha virt. eigenvalues --    1.42606   1.42890   1.43290   1.43787   1.44125
 Alpha virt. eigenvalues --    1.44630   1.45205   1.45336   1.45689   1.45881
 Alpha virt. eigenvalues --    1.46051   1.46572   1.47059   1.47560   1.48067
 Alpha virt. eigenvalues --    1.48515   1.49036   1.49380   1.49791   1.50365
 Alpha virt. eigenvalues --    1.51572   1.52252   1.52588   1.53161   1.53647
 Alpha virt. eigenvalues --    1.54774   1.54961   1.56476   1.56945   1.57817
 Alpha virt. eigenvalues --    1.58650   1.59019   1.59514   1.61502   1.61881
 Alpha virt. eigenvalues --    1.62435   1.63070   1.63970   1.64731   1.66040
 Alpha virt. eigenvalues --    1.66348   1.66819   1.68185   1.69135   1.69484
 Alpha virt. eigenvalues --    1.70248   1.70536   1.71763   1.72065   1.73027
 Alpha virt. eigenvalues --    1.73416   1.73453   1.73742   1.73987   1.74459
 Alpha virt. eigenvalues --    1.74983   1.75603   1.76211   1.76333   1.76677
 Alpha virt. eigenvalues --    1.76966   1.77898   1.78273   1.78536   1.78826
 Alpha virt. eigenvalues --    1.79256   1.79376   1.79999   1.80348   1.80466
 Alpha virt. eigenvalues --    1.80858   1.81011   1.81288   1.81677   1.81822
 Alpha virt. eigenvalues --    1.82324   1.82577   1.83292   1.83511   1.83772
 Alpha virt. eigenvalues --    1.84005   1.84479   1.84739   1.85103   1.85137
 Alpha virt. eigenvalues --    1.85351   1.85881   1.86260   1.86378   1.86592
 Alpha virt. eigenvalues --    1.86752   1.87171   1.87386   1.87786   1.87956
 Alpha virt. eigenvalues --    1.88425   1.89013   1.89394   1.89760   1.90105
 Alpha virt. eigenvalues --    1.90388   1.90721   1.91070   1.91427   1.91622
 Alpha virt. eigenvalues --    1.92037   1.92488   1.93221   1.93330   1.93565
 Alpha virt. eigenvalues --    1.94047   1.94541   1.94718   1.94802   1.95080
 Alpha virt. eigenvalues --    1.95733   1.96231   1.96415   1.97027   1.97106
 Alpha virt. eigenvalues --    1.97911   1.98140   1.98546   1.99027   1.99574
 Alpha virt. eigenvalues --    1.99794   2.00504   2.00587   2.01300   2.01646
 Alpha virt. eigenvalues --    2.02145   2.02620   2.03628   2.03904   2.04221
 Alpha virt. eigenvalues --    2.04331   2.04756   2.05358   2.05757   2.05980
 Alpha virt. eigenvalues --    2.06279   2.06725   2.06927   2.07402   2.07528
 Alpha virt. eigenvalues --    2.07925   2.08413   2.08792   2.09186   2.09573
 Alpha virt. eigenvalues --    2.09944   2.10186   2.10470   2.10703   2.10831
 Alpha virt. eigenvalues --    2.11311   2.11666   2.11923   2.12088   2.12613
 Alpha virt. eigenvalues --    2.12936   2.13199   2.13388   2.13839   2.14080
 Alpha virt. eigenvalues --    2.14368   2.14610   2.14970   2.15068   2.15234
 Alpha virt. eigenvalues --    2.15577   2.15965   2.16304   2.16503   2.16835
 Alpha virt. eigenvalues --    2.17301   2.17461   2.17774   2.17941   2.18295
 Alpha virt. eigenvalues --    2.18625   2.18730   2.19266   2.19463   2.19682
 Alpha virt. eigenvalues --    2.20088   2.20689   2.20779   2.21205   2.21428
 Alpha virt. eigenvalues --    2.22406   2.23170   2.23745   2.24550   2.24828
 Alpha virt. eigenvalues --    2.25235   2.25399   2.25604   2.25768   2.26492
 Alpha virt. eigenvalues --    2.26858   2.27064   2.27411   2.27839   2.28488
 Alpha virt. eigenvalues --    2.28758   2.29370   2.29535   2.30472   2.30798
 Alpha virt. eigenvalues --    2.30986   2.31311   2.31844   2.32280   2.32372
 Alpha virt. eigenvalues --    2.34096   2.34651   2.35263   2.35770   2.35899
 Alpha virt. eigenvalues --    2.36791   2.37024   2.37830   2.38563   2.39355
 Alpha virt. eigenvalues --    2.39580   2.39957   2.40419   2.40668   2.40859
 Alpha virt. eigenvalues --    2.41145   2.41541   2.41705   2.41876   2.42263
 Alpha virt. eigenvalues --    2.42660   2.43051   2.43331   2.43795   2.43879
 Alpha virt. eigenvalues --    2.44704   2.44951   2.45037   2.45811   2.46450
 Alpha virt. eigenvalues --    2.46863   2.46880   2.47424   2.47831   2.47907
 Alpha virt. eigenvalues --    2.48295   2.48726   2.49375   2.50220   2.50944
 Alpha virt. eigenvalues --    2.51733   2.51972   2.52089   2.53182   2.53342
 Alpha virt. eigenvalues --    2.53528   2.54802   2.55287   2.55333   2.55805
 Alpha virt. eigenvalues --    2.55897   2.56153   2.57016   2.58072   2.58654
 Alpha virt. eigenvalues --    2.58746   2.58857   2.59024   2.59263   2.59729
 Alpha virt. eigenvalues --    2.60003   2.60368   2.60985   2.61210   2.61574
 Alpha virt. eigenvalues --    2.61631   2.62583   2.62614   2.63287   2.63753
 Alpha virt. eigenvalues --    2.63985   2.65225   2.65538   2.65818   2.65978
 Alpha virt. eigenvalues --    2.66441   2.66796   2.67290   2.67574   2.67821
 Alpha virt. eigenvalues --    2.68399   2.68720   2.68782   2.69287   2.69907
 Alpha virt. eigenvalues --    2.70120   2.70431   2.70824   2.71249   2.71343
 Alpha virt. eigenvalues --    2.71752   2.71996   2.72323   2.73121   2.73662
 Alpha virt. eigenvalues --    2.73813   2.74252   2.74674   2.74889   2.75001
 Alpha virt. eigenvalues --    2.75790   2.76231   2.76835   2.77793   2.78263
 Alpha virt. eigenvalues --    2.78756   2.79085   2.79484   2.80032   2.80575
 Alpha virt. eigenvalues --    2.80782   2.81141   2.81494   2.81772   2.82119
 Alpha virt. eigenvalues --    2.82201   2.82586   2.82998   2.83151   2.83683
 Alpha virt. eigenvalues --    2.84082   2.84794   2.86016   2.86699   2.86951
 Alpha virt. eigenvalues --    2.87249   2.87718   2.88038   2.88432   2.88655
 Alpha virt. eigenvalues --    2.88911   2.89147   2.89670   2.89828   2.90769
 Alpha virt. eigenvalues --    2.90836   2.91239   2.91704   2.92113   2.92636
 Alpha virt. eigenvalues --    2.92955   2.93844   2.94276   2.95039   2.96682
 Alpha virt. eigenvalues --    2.97412   2.99403   2.99431   3.00624   3.01591
 Alpha virt. eigenvalues --    3.02169   3.02682   3.02897   3.03658   3.04052
 Alpha virt. eigenvalues --    3.04763   3.06911   3.08920   3.09031   3.09310
 Alpha virt. eigenvalues --    3.09654   3.10234   3.12830   3.13171   3.14410
 Alpha virt. eigenvalues --    3.17181   3.18176   3.18535   3.18718   3.20294
 Alpha virt. eigenvalues --    3.20676   3.21197   3.21612   3.21976   3.22036
 Alpha virt. eigenvalues --    3.22426   3.22732   3.24089   3.24334   3.25901
 Alpha virt. eigenvalues --    3.26399   3.27019   3.27072   3.28891   3.29376
 Alpha virt. eigenvalues --    3.29684   3.30510   3.30760   3.31723   3.32073
 Alpha virt. eigenvalues --    3.32182   3.33658   3.36905   3.37126   3.40590
 Alpha virt. eigenvalues --    3.41272   3.41613   3.42467   3.43755   3.44282
 Alpha virt. eigenvalues --    3.44453   3.44860   3.45090   3.45223   3.45599
 Alpha virt. eigenvalues --    3.45796   3.46234   3.46778   3.47046   3.47425
 Alpha virt. eigenvalues --    3.47672   3.49356   3.49606   3.49857   3.50847
 Alpha virt. eigenvalues --    3.50894   3.55935   3.58915   3.62679   3.68548
 Alpha virt. eigenvalues --    3.68934   3.69676   3.73978   3.74407   3.75918
 Alpha virt. eigenvalues --    3.79563   3.93589   4.03492   4.05609   4.10391
 Alpha virt. eigenvalues --    4.12410   4.14294   4.16033   4.17322   4.17719
 Alpha virt. eigenvalues --    4.18047   4.20194   4.20767   4.22063   4.24464
 Alpha virt. eigenvalues --    4.24699   4.25408   4.25747   4.26045   4.26684
 Alpha virt. eigenvalues --    4.28541   4.32994   4.34047   4.35093   4.37109
 Alpha virt. eigenvalues --    4.39329   4.41167   4.42068   4.43150   4.43681
 Alpha virt. eigenvalues --    4.44085   4.45505   4.46714   4.47386   4.49862
 Alpha virt. eigenvalues --    4.50515   4.51259   4.53681   4.55165   4.58400
 Alpha virt. eigenvalues --    4.60273   4.60963   4.62355   4.62779   4.62979
 Alpha virt. eigenvalues --    4.63499   4.66614   4.72817   4.81633   4.83536
 Alpha virt. eigenvalues --    4.85663   4.87219   4.87630   4.90548   4.96457
 Alpha virt. eigenvalues --    4.99484
          Condensed to atoms (all electrons):
 Mulliken charges:
               1
     1  O   -0.539370
     2  N   -0.558032
     3  O   -0.527871
     4  O   -0.597884
     5  C   -0.314134
     6  N    0.423930
     7  C    0.200940
     8  C    0.668533
     9  C    0.012685
    10  C   -0.185021
    11  C    0.601075
    12  C   -0.130112
    13  C   -0.110207
    14  C   -0.152460
    15  C   -0.109498
    16  O   -0.397487
    17  O   -0.400562
    18  H    0.352176
    19  H    0.301999
    20  H    0.427385
    21  H    0.126548
    22  H    0.148439
    23  H    0.132111
    24  H    0.176173
    25  H    0.188111
    26  H    0.152541
    27  H    0.189307
    28  H    0.439872
    29  O   -0.639249
    30  O   -0.622364
    31  C   -0.408140
    32  O   -0.622076
    33  C   -0.411210
    34  C   -0.405695
    35  O   -0.671862
    36  C   -0.393164
    37  C   -0.411026
    38  C   -0.395835
    39  C   -0.207132
    40  C    0.138578
    41  C   -0.147219
    42  C   -0.202073
    43  C    0.101183
    44  C    0.137564
    45  C   -0.060363
    46  C    0.207621
    47  C   -0.146314
    48  C    0.103961
    49  C   -0.211526
    50  C    0.120566
    51  C    0.028890
    52  C   -0.148149
    53  C    0.002901
    54  C    0.211691
    55  C   -0.266247
    56  C    0.000084
    57  C   -0.148447
    58  C   -0.059514
    59  C    0.027648
    60  C   -0.188709
    61  C   -0.150048
    62  C    0.098722
    63  C   -0.194162
    64  C    0.102599
    65  C    0.107455
    66  C   -0.212275
    67  C   -0.266880
    68  P    1.329940
    69  H    0.124945
    70  H    0.141689
    71  H    0.135344
    72  H    0.158273
    73  H    0.120589
    74  H    0.134632
    75  H    0.110971
    76  H    0.148338
    77  H    0.139932
    78  H    0.135101
    79  H    0.159938
    80  H    0.086620
    81  H    0.131721
    82  H    0.166489
    83  H    0.123598
    84  H    0.122331
    85  H    0.123796
    86  H    0.163595
    87  H    0.101976
    88  H    0.121703
    89  H    0.096802
    90  H    0.136281
    91  H    0.116575
    92  H    0.128182
    93  H    0.137432
    94  H    0.135424
    95  H    0.121296
    96  H    0.106403
    97  H    0.126920
    98  H    0.064732
    99  H    0.116062
   100  H    0.139736
   101  H    0.139248
   102  H    0.134416
 Sum of Mulliken charges =  -0.00000
 Mulliken charges with hydrogens summed into heavy atoms:
               1
     1  O   -0.099498
     2  N   -0.256033
     3  O   -0.100486
     4  O   -0.597884
     5  C    0.092964
     6  N    0.423930
     7  C    0.200940
     8  C    0.668533
     9  C    0.012685
    10  C   -0.185021
    11  C    0.601075
    12  C    0.046061
    13  C    0.077904
    14  C    0.000081
    15  C    0.079809
    16  O   -0.397487
    17  O   -0.400562
    29  O   -0.287074
    30  O   -0.622364
    31  C   -0.006162
    32  O   -0.622076
    33  C    0.002284
    34  C   -0.006453
    35  O   -0.671862
    36  C   -0.011504
    37  C    0.010782
    38  C    0.013886
    39  C   -0.105155
    40  C    0.138578
    41  C   -0.025516
    42  C   -0.105271
    43  C    0.101183
    44  C    0.137564
    45  C   -0.060363
    46  C    0.207621
    47  C   -0.146314
    48  C    0.103961
    49  C    0.041329
    50  C    0.120566
    51  C    0.028890
    52  C   -0.019967
    53  C    0.002901
    54  C    0.211691
    55  C    0.006609
    56  C    0.000084
    57  C   -0.027151
    58  C   -0.059514
    59  C    0.027648
    60  C   -0.082307
    61  C   -0.023128
    62  C    0.098722
    63  C   -0.129429
    64  C    0.102599
    65  C    0.107455
    66  C    0.043523
    67  C    0.006784
    68  P    1.329940
 APT charges:
               1
     1  O    0.002891
     2  N   -0.552119
     3  O   -0.100269
     4  O    0.084717
     5  C   -1.161603
     6  N   -0.854359
     7  C    1.020007
     8  C   -0.146950
     9  C   -0.695701
    10  C   -0.208736
    11  C   -0.201418
    12  C   -0.454193
    13  C   -0.525321
    14  C   -0.654256
    15  C   -0.496217
    16  O    0.601100
    17  O    0.065410
    18  H    0.326222
    19  H    0.164220
    20  H    0.577016
    21  H    0.153541
    22  H    0.295087
    23  H    0.693086
    24  H    0.497284
    25  H    0.650682
    26  H   -0.111449
    27  H    1.323984
    28  H    0.154080
    29  O   -0.654080
    30  O   -0.284385
    31  C   -1.499700
    32  O   -0.297095
    33  C   -1.090952
    34  C   -1.482805
    35  O   -0.359938
    36  C   -0.995782
    37  C   -1.262836
    38  C   -1.150501
    39  C   -0.467101
    40  C   -0.400338
    41  C   -0.426963
    42  C   -0.507180
    43  C    0.306593
    44  C    0.011071
    45  C   -0.409348
    46  C   -0.527432
    47  C   -0.042995
    48  C   -0.237700
    49  C   -0.901303
    50  C   -0.097143
    51  C    0.427728
    52  C   -0.408651
    53  C   -0.467640
    54  C   -0.257957
    55  C   -1.523434
    56  C   -0.510213
    57  C   -0.487043
    58  C   -0.420547
    59  C    0.438945
    60  C   -0.428331
    61  C   -0.479309
    62  C   -0.062905
    63  C   -0.508638
    64  C   -0.304440
    65  C    0.317905
    66  C   -0.811526
    67  C   -1.805689
    68  P    0.592946
    69  H    0.454686
    70  H    1.069937
    71  H    0.067236
    72  H   -0.188035
    73  H    0.690884
    74  H    0.668909
    75  H    0.249443
    76  H    0.430234
    77  H    0.896865
    78  H    0.670684
    79  H    0.031770
    80  H    0.344640
    81  H    0.496091
    82  H    0.067495
    83  H    0.800749
    84  H    0.484300
    85  H    0.894604
    86  H   -0.140918
    87  H    0.661961
    88  H    1.266271
    89  H    0.541703
    90  H   -0.001933
    91  H    0.951355
    92  H    0.918987
    93  H    0.573447
    94  H    0.898847
    95  H    0.951887
    96  H    0.750778
    97  H    0.595515
    98  H    0.400446
    99  H    0.779927
   100  H    0.067690
   101  H    0.818510
   102  H    0.865011
 Sum of APT charges =  -0.00000
 APT charges with hydrogens summed into heavy atoms:
               1
     1  O    0.156971
     2  N   -0.387898
     3  O    0.476747
     4  O    0.084717
     5  C   -0.019890
     6  N   -0.854359
     7  C    1.020007
     8  C   -0.146950
     9  C   -0.695701
    10  C   -0.208736
    11  C   -0.201418
    12  C    0.043092
    13  C    0.125362
    14  C   -0.765705
    15  C    0.827767
    16  O    0.601100
    17  O    0.065410
    29  O   -0.327859
    30  O   -0.284385
    31  C    0.092159
    32  O   -0.297095
    33  C    0.080806
    34  C    0.093737
    35  O   -0.359938
    36  C    0.051312
    37  C    0.101498
    38  C    0.087486
    39  C    0.194860
    40  C   -0.400338
    41  C    0.839308
    42  C    0.034523
    43  C    0.306593
    44  C    0.011071
    45  C   -0.409348
    46  C   -0.527432
    47  C   -0.042995
    48  C   -0.237700
    49  C    0.048119
    50  C   -0.097143
    51  C    0.427728
    52  C    0.510336
    53  C   -0.467640
    54  C   -0.257957
    55  C   -0.051141
    56  C   -0.510213
    57  C    0.464844
    58  C   -0.420547
    59  C    0.438945
    60  C    0.322447
    61  C    0.116207
    62  C   -0.062905
    63  C   -0.108192
    64  C   -0.304440
    65  C    0.317905
    66  C    0.036091
    67  C   -0.122168
    68  P    0.592946
 Electronic spatial extent (au):  <R**2>=          38596.0583
 Charge=             -0.0000 electrons
 Dipole moment (field-independent basis, Debye):
    X=             -3.4235    Y=             -0.8495    Z=             -1.9873  Tot=              4.0486
 Quadrupole moment (field-independent basis, Debye-Ang):
   XX=           -347.5905   YY=           -323.4614   ZZ=           -346.6063
   XY=             16.8309   XZ=             17.4957   YZ=             -3.1369
 Traceless Quadrupole moment (field-independent basis, Debye-Ang):
   XX=             -8.3711   YY=             15.7580   ZZ=             -7.3869
   XY=             16.8309   XZ=             17.4957   YZ=             -3.1369
 Octapole moment (field-independent basis, Debye-Ang**2):
  XXX=           -452.0181  YYY=             20.7516  ZZZ=             21.5901  XYY=            -14.5107
  XXY=              6.1977  XXZ=            203.8687  XZZ=            -63.1744  YZZ=            -16.4751
  YYZ=            -32.1539  XYZ=            -66.5222
 Hexadecapole moment (field-independent basis, Debye-Ang**3):
 XXXX=         -34383.7266 YYYY=         -13156.5391 ZZZZ=          -7045.6382 XXXY=            767.3151
 XXXZ=           1753.0298 YYYX=            121.9611 YYYZ=            291.0817 ZZZX=            230.2074
 ZZZY=            -91.9311 XXYY=          -7516.0070 XXZZ=          -7197.4152 YYZZ=          -3307.6203
 XXYZ=           -164.8252 YYXZ=           -102.2480 ZZXY=             91.4512
 N-N= 8.984284947243D+03 E-N=-2.465958103177D+04  KE= 2.846330816677D+03
  Exact polarizability:       0.000       0.000       0.000       0.000       0.000       0.000
 Approx polarizability:     710.577      13.695     574.517       1.483      53.273     678.744
 Leave Link  601 at Sat Oct 29 12:53:39 2022, MaxMem=  8053063680 cpu:               7.1 elap:               0.6
 (Enter /project/chenjingdan/g16/l701.exe)
 ... and contract with generalized density number  0.
 Compute integral second derivatives.
 Leave Link  701 at Sat Oct 29 12:53:40 2022, MaxMem=  8053063680 cpu:              10.0 elap:               0.7
 (Enter /project/chenjingdan/g16/l702.exe)
 L702 exits ... SP integral derivatives will be done elsewhere.
 Leave Link  702 at Sat Oct 29 12:53:40 2022, MaxMem=  8053063680 cpu:               0.3 elap:               0.0
 (Enter /project/chenjingdan/g16/l703.exe)
 Integral derivatives from FoFJK, PRISM(SPDF).
 Compute integral second derivatives, UseDBF=F ICtDFT=           0.
 Calling FoFJK, ICntrl=    100127 FMM=F ISym2X=0 I1Cent= 0 IOpClX= 0 NMat=1 NMatS=1 NMatT=0.
 FoFJK:  IHMeth= 1 ICntrl=  100127 DoSepK=F KAlg= 0 I1Cent=           0 FoldK=F
 IRaf=         0 NMat=       1 IRICut=       1 DoRegI=T DoRafI=F ISym2E= 0 IDoP0=0 IntGTp=1.
 FoFCou: FMM=F IPFlag=           0 FMFlag=      100000 FMFlg1=        2800
         NFxFlg=           0 DoJE=F BraDBF=F KetDBF=F FulRan=T
         wScrn=  0.000000 ICntrl=    100127 IOpCl=  0 I1Cent=           0 NGrid=           0
         NMat0=    1 NMatS0=      1 NMatT0=    0 NMatD0=    1 NMtDS0=    0 NMtDT0=    0
 Symmetry not used in FoFCou.
 Leave Link  703 at Sat Oct 29 13:19:01 2022, MaxMem=  8053063680 cpu:           24338.4 elap:            1521.2
 (Enter /project/chenjingdan/g16/l716.exe)
 Dipole        =-1.34690368D+00-3.34235672D-01-7.81860264D-01
 Polarizability= 0.00000000D+00 0.00000000D+00 0.00000000D+00
                 0.00000000D+00 0.00000000D+00 0.00000000D+00
 -------------------------------------------------------------------
 Center     Atomic                   Forces (Hartrees/Bohr)
 Number     Number              X              Y              Z
 -------------------------------------------------------------------
      1        8           0.000001079   -0.000002681   -0.000003248
      2        7           0.000001349    0.000000439    0.000001764
      3        8           0.000001217    0.000001884   -0.000004743
      4        8          -0.000006934    0.000003628    0.000000205
      5        6           0.000008950    0.000004285    0.000003132
      6        7           0.000003351    0.000000094   -0.000007354
      7        6           0.000006771   -0.000001109    0.000002848
      8        6           0.000005557   -0.000000701    0.000007746
      9        6          -0.000005977    0.000000758    0.000008128
     10        6          -0.000003991    0.000003939   -0.000003000
     11        6           0.000005654   -0.000001564   -0.000001759
     12        6           0.000006098   -0.000001038   -0.000001789
     13        6          -0.000006960    0.000005554   -0.000000219
     14        6           0.000004050   -0.000000588   -0.000004890
     15        6          -0.000004706    0.000003269    0.000003346
     16        8          -0.000007191    0.000005615   -0.000003978
     17        8           0.000003848    0.000000436    0.000012325
     18        1           0.000000353    0.000001270    0.000005199
     19        1          -0.000000116    0.000000518   -0.000000401
     20        1          -0.000006120   -0.000001910    0.000001491
     21        1          -0.000001246   -0.000001402   -0.000001642
     22        1          -0.000004280    0.000000214    0.000001476
     23        1          -0.000002293   -0.000002677    0.000001941
     24        1          -0.000000753    0.000000531    0.000000212
[...]
 Alpha virt. eigenvalues --    0.87248   0.87305   0.87545   0.87711   0.87847
 Alpha virt. eigenvalues --    0.88240   0.88429   0.88559   0.89040   0.89247
 Alpha virt. eigenvalues --    0.89587   0.89871   0.90082   0.90412   0.90770
 Alpha virt. eigenvalues --    0.90930   0.91304   0.91520   0.92279   0.92447
 Alpha virt. eigenvalues --    0.92596   0.93000   0.93574   0.93947   0.94240
 Alpha virt. eigenvalues --    0.94307   0.94846   0.95102   0.95288   0.95340
 Alpha virt. eigenvalues --    0.95974   0.96247   0.96913   0.97261   0.97351
 Alpha virt. eigenvalues --    0.97477   0.97573   0.97856   0.98008   0.98247
 Alpha virt. eigenvalues --    0.98824   0.99156   0.99302   0.99322   0.99506
 Alpha virt. eigenvalues --    0.99937   1.00270   1.00572   1.00927   1.01347
 Alpha virt. eigenvalues --    1.01572   1.01728   1.02369   1.02651   1.02683
 Alpha virt. eigenvalues --    1.03183   1.03633   1.04024   1.04361   1.04804
 Alpha virt. eigenvalues --    1.05420   1.05463   1.06359   1.06401   1.06605
 Alpha virt. eigenvalues --    1.07038   1.07373   1.07511   1.08712   1.08790
 Alpha virt. eigenvalues --    1.08896   1.09302   1.09582   1.10006   1.10306
 Alpha virt. eigenvalues --    1.10748   1.11347   1.11983   1.12616   1.12860
 Alpha virt. eigenvalues --    1.13635   1.14063   1.14309   1.14830   1.15328
 Alpha virt. eigenvalues --    1.15542   1.15974   1.16657   1.17521   1.17964
 Alpha virt. eigenvalues --    1.18120   1.19150   1.19450   1.19543   1.19657
 Alpha virt. eigenvalues --    1.20347   1.20720   1.21128   1.21878   1.22184
 Alpha virt. eigenvalues --    1.22948   1.23195   1.23674   1.24306   1.25051
 Alpha virt. eigenvalues --    1.25635   1.25780   1.26179   1.26528   1.26783
 Alpha virt. eigenvalues --    1.27575   1.28273   1.28690   1.28967   1.29478
 Alpha virt. eigenvalues --    1.30160   1.30538   1.30672   1.30805   1.30890
 Alpha virt. eigenvalues --    1.31428   1.32205   1.32243   1.33582   1.33942
 Alpha virt. eigenvalues --    1.34839   1.35158   1.35655   1.36124   1.36476
 Alpha virt. eigenvalues --    1.36893   1.37344   1.37554   1.38685   1.38804
 Alpha virt. eigenvalues --    1.39406   1.39510   1.39726   1.40228   1.40382
 Alpha virt. eigenvalues --    1.40804   1.41223   1.41330   1.41943   1.42088
 Alpha virt. eigenvalues --    1.42601   1.43051   1.43312   1.43967   1.44197
 Alpha virt. eigenvalues --    1.44613   1.45115   1.45440   1.45544   1.45799
 Alpha virt. eigenvalues --    1.46080   1.46759   1.47538   1.47617   1.48049
 Alpha virt. eigenvalues --    1.48489   1.49083   1.49764   1.50295   1.50636
 Alpha virt. eigenvalues --    1.51263   1.52206   1.53118   1.53431   1.53630
 Alpha virt. eigenvalues --    1.54301   1.55019   1.55596   1.56835   1.57926
 Alpha virt. eigenvalues --    1.58432   1.59256   1.60183   1.61161   1.62160
 Alpha virt. eigenvalues --    1.62610   1.64286   1.65282   1.65716   1.66068
 Alpha virt. eigenvalues --    1.66656   1.66854   1.68441   1.69289   1.70246
 Alpha virt. eigenvalues --    1.70722   1.71203   1.71567   1.71988   1.72794
 Alpha virt. eigenvalues --    1.73404   1.73416   1.73610   1.73818   1.74488
 Alpha virt. eigenvalues --    1.75451   1.75870   1.76205   1.76639   1.76819
 Alpha virt. eigenvalues --    1.77418   1.77588   1.77970   1.78402   1.78601
 Alpha virt. eigenvalues --    1.79127   1.79359   1.79736   1.80211   1.80635
 Alpha virt. eigenvalues --    1.80837   1.81011   1.81277   1.81374   1.82164
 Alpha virt. eigenvalues --    1.82345   1.82739   1.82828   1.83229   1.83850
 Alpha virt. eigenvalues --    1.84212   1.84475   1.84977   1.85055   1.85277
 Alpha virt. eigenvalues --    1.85431   1.85621   1.86164   1.86371   1.86771
 Alpha virt. eigenvalues --    1.86936   1.87309   1.87420   1.87534   1.88052
 Alpha virt. eigenvalues --    1.88790   1.89242   1.89300   1.89637   1.90191
 Alpha virt. eigenvalues --    1.90428   1.91317   1.91376   1.91618   1.91736
 Alpha virt. eigenvalues --    1.92429   1.92780   1.93060   1.93353   1.93888
 Alpha virt. eigenvalues --    1.94258   1.94389   1.94860   1.94948   1.95128
 Alpha virt. eigenvalues --    1.95622   1.96349   1.96741   1.97102   1.97502
 Alpha virt. eigenvalues --    1.97932   1.98328   1.98830   1.98974   1.99646
 Alpha virt. eigenvalues --    1.99846   2.00353   2.00591   2.01260   2.01680
 Alpha virt. eigenvalues --    2.02069   2.02710   2.03632   2.03943   2.04210
 Alpha virt. eigenvalues --    2.04401   2.05041   2.05509   2.06067   2.06366
 Alpha virt. eigenvalues --    2.06457   2.06975   2.07202   2.07303   2.07668
 Alpha virt. eigenvalues --    2.07920   2.08309   2.08592   2.09263   2.09332
 Alpha virt. eigenvalues --    2.09670   2.09937   2.10024   2.10278   2.10632
 Alpha virt. eigenvalues --    2.11034   2.11383   2.11913   2.12381   2.12583
 Alpha virt. eigenvalues --    2.12724   2.13124   2.13224   2.13445   2.13929
 Alpha virt. eigenvalues --    2.14099   2.14535   2.14821   2.15033   2.15335
 Alpha virt. eigenvalues --    2.15473   2.15889   2.16109   2.16323   2.16626
 Alpha virt. eigenvalues --    2.17072   2.17186   2.17567   2.17823   2.18094
 Alpha virt. eigenvalues --    2.18374   2.18516   2.19119   2.19493   2.19696
 Alpha virt. eigenvalues --    2.20059   2.20498   2.20711   2.21016   2.21537
 Alpha virt. eigenvalues --    2.22185   2.22943   2.23107   2.24012   2.24718
 Alpha virt. eigenvalues --    2.25086   2.25334   2.25555   2.25812   2.26215
 Alpha virt. eigenvalues --    2.26879   2.27104   2.27375   2.27770   2.28507
 Alpha virt. eigenvalues --    2.28694   2.29556   2.29639   2.30460   2.30792
 Alpha virt. eigenvalues --    2.31195   2.31531   2.31934   2.32146   2.32504
 Alpha virt. eigenvalues --    2.34001   2.34757   2.35029   2.35823   2.36145
 Alpha virt. eigenvalues --    2.36918   2.37489   2.38255   2.38641   2.39391
 Alpha virt. eigenvalues --    2.39549   2.39847   2.40154   2.40556   2.40798
 Alpha virt. eigenvalues --    2.41078   2.41366   2.41720   2.41974   2.42199
 Alpha virt. eigenvalues --    2.42587   2.42847   2.43461   2.43532   2.43912
 Alpha virt. eigenvalues --    2.44121   2.44617   2.44749   2.45206   2.46103
 Alpha virt. eigenvalues --    2.46169   2.46976   2.47578   2.47766   2.48064
 Alpha virt. eigenvalues --    2.48403   2.48926   2.49689   2.50311   2.50860
 Alpha virt. eigenvalues --    2.51768   2.52079   2.52122   2.52532   2.53207
 Alpha virt. eigenvalues --    2.53648   2.53816   2.55051   2.55274   2.55379
 Alpha virt. eigenvalues --    2.55938   2.56376   2.57125   2.58110   2.58292
 Alpha virt. eigenvalues --    2.58849   2.58890   2.59044   2.59289   2.59622
 Alpha virt. eigenvalues --    2.60100   2.60309   2.61048   2.61319   2.61724
 Alpha virt. eigenvalues --    2.62045   2.62488   2.62721   2.63163   2.63837
 Alpha virt. eigenvalues --    2.64038   2.64923   2.65381   2.65744   2.66177
 Alpha virt. eigenvalues --    2.66381   2.66677   2.67307   2.67778   2.67812
 Alpha virt. eigenvalues --    2.68614   2.68719   2.69156   2.69768   2.70105
 Alpha virt. eigenvalues --    2.70180   2.70337   2.70844   2.70956   2.71634
 Alpha virt. eigenvalues --    2.71817   2.71879   2.72159   2.72840   2.73682
 Alpha virt. eigenvalues --    2.73887   2.74323   2.74915   2.74990   2.75528
 Alpha virt. eigenvalues --    2.75884   2.76834   2.77568   2.78073   2.78491
 Alpha virt. eigenvalues --    2.79179   2.79331   2.79480   2.79880   2.80335
 Alpha virt. eigenvalues --    2.80903   2.81230   2.81622   2.81900   2.82203
 Alpha virt. eigenvalues --    2.82323   2.82640   2.82966   2.83452   2.83787
 Alpha virt. eigenvalues --    2.84762   2.84891   2.85964   2.86744   2.87095
 Alpha virt. eigenvalues --    2.87587   2.87892   2.88150   2.88346   2.88542
 Alpha virt. eigenvalues --    2.88921   2.89262   2.89894   2.90366   2.90629
 Alpha virt. eigenvalues --    2.90847   2.90970   2.91571   2.91914   2.92446
 Alpha virt. eigenvalues --    2.92901   2.93952   2.94221   2.95487   2.96667
 Alpha virt. eigenvalues --    2.97703   2.99082   2.99637   3.00484   3.01728
 Alpha virt. eigenvalues --    3.02405   3.02724   3.03258   3.03840   3.05015
 Alpha virt. eigenvalues --    3.05521   3.07230   3.08940   3.09102   3.09315
 Alpha virt. eigenvalues --    3.09784   3.10330   3.12641   3.13343   3.14530
 Alpha virt. eigenvalues --    3.16938   3.17786   3.18165   3.18458   3.18931
 Alpha virt. eigenvalues --    3.20449   3.20983   3.21236   3.21605   3.21987
 Alpha virt. eigenvalues --    3.22099   3.22257   3.23315   3.24380   3.25598
 Alpha virt. eigenvalues --    3.25805   3.26488   3.27073   3.27196   3.29489
 Alpha virt. eigenvalues --    3.29626   3.30642   3.30862   3.31817   3.32059
 Alpha virt. eigenvalues --    3.32344   3.33764   3.36824   3.37202   3.40446
 Alpha virt. eigenvalues --    3.40732   3.41397   3.42215   3.43694   3.44495
 Alpha virt. eigenvalues --    3.44637   3.44881   3.45010   3.45208   3.45774
 Alpha virt. eigenvalues --    3.45942   3.46246   3.46394   3.46933   3.47228
 Alpha virt. eigenvalues --    3.47614   3.48443   3.49366   3.49969   3.50899
 Alpha virt. eigenvalues --    3.50925   3.55504   3.60158   3.63716   3.65031
 Alpha virt. eigenvalues --    3.68564   3.68972   3.73967   3.74455   3.75920
 Alpha virt. eigenvalues --    3.79651   3.93577   4.00993   4.03525   4.11867
 Alpha virt. eigenvalues --    4.14229   4.15818   4.16091   4.17328   4.17670
 Alpha virt. eigenvalues --    4.18042   4.19637   4.20398   4.21513   4.24326
 Alpha virt. eigenvalues --    4.24627   4.24910   4.25936   4.26238   4.26840
 Alpha virt. eigenvalues --    4.28160   4.31418   4.33072   4.34815   4.35759
 Alpha virt. eigenvalues --    4.39230   4.40944   4.41756   4.43332   4.43575
 Alpha virt. eigenvalues --    4.43998   4.45652   4.46083   4.47053   4.49535
 Alpha virt. eigenvalues --    4.49910   4.50826   4.53216   4.55240   4.58228
 Alpha virt. eigenvalues --    4.59721   4.60426   4.62150   4.63072   4.63177
 Alpha virt. eigenvalues --    4.63563   4.65125   4.72824   4.81633   4.83534
 Alpha virt. eigenvalues --    4.86267   4.86675   4.87617   4.90388   4.96183
 Alpha virt. eigenvalues --    4.99390
          Condensed to atoms (all electrons):
 Mulliken charges:
               1
     1  O   -0.564650
     2  N   -0.567512
     3  O   -0.527841
     4  O   -0.594128
     5  C   -0.323723
     6  N    0.424509
     7  C    0.201367
     8  C    0.681179
     9  C    0.011755
    10  C   -0.094201
    11  C    0.606681
    12  C   -0.128810
    13  C   -0.110167
    14  C   -0.149207
    15  C   -0.109668
    16  O   -0.397301
    17  O   -0.400107
    18  H    0.198144
    19  H    0.314409
    20  H    0.424124
    21  H    0.138665
    22  H    0.149259
    23  H    0.131818
    24  H    0.176845
    25  H    0.188992
    26  H    0.154176
    27  H    0.189961
    28  H    0.461267
    29  O   -0.627441
    30  O   -0.609358
    31  C   -0.407924
    32  O   -0.624032
    33  C   -0.412482
    34  C   -0.405440
    35  O   -0.645792
    36  C   -0.393537
    37  C   -0.410207
    38  C   -0.396482
    39  C   -0.205596
    40  C    0.137559
    41  C   -0.147253
    42  C   -0.201849
    43  C    0.099966
    44  C    0.135715
    45  C   -0.057287
    46  C    0.210150
    47  C   -0.142469
    48  C    0.105927
    49  C   -0.212082
    50  C    0.113395
    51  C    0.026678
    52  C   -0.151669
    53  C    0.013239
    54  C    0.206940
    55  C   -0.266456
    56  C   -0.004466
    57  C   -0.148375
    58  C   -0.060473
    59  C    0.029532
    60  C   -0.188621
    61  C   -0.150282
    62  C    0.095835
    63  C   -0.199083
    64  C    0.114618
    65  C    0.102770
    66  C   -0.211989
    67  C   -0.267291
    68  P    1.321913
    69  H    0.125456
    70  H    0.142438
    71  H    0.134141
    72  H    0.162406
    73  H    0.120426
    74  H    0.134295
    75  H    0.110113
    76  H    0.148620
    77  H    0.139977
    78  H    0.130659
    79  H    0.170695
    80  H    0.082046
    81  H    0.132230
    82  H    0.163726
    83  H    0.123360
    84  H    0.125015
    85  H    0.127355
    86  H    0.156830
    87  H    0.102470
    88  H    0.120642
    89  H    0.097388
    90  H    0.137050
    91  H    0.116114
    92  H    0.127504
    93  H    0.137360
    94  H    0.135006
    95  H    0.120766
    96  H    0.105983
    97  H    0.126475
    98  H    0.063047
    99  H    0.116017
   100  H    0.139088
   101  H    0.138803
   102  H    0.134363
 Sum of Mulliken charges =  -0.00000
 Mulliken charges with hydrogens summed into heavy atoms:
               1
     1  O   -0.564650
     2  N   -0.253104
     3  O   -0.103717
     4  O   -0.594128
     5  C    0.096019
     6  N    0.424509
     7  C    0.201367
     8  C    0.681179
     9  C    0.011755
    10  C    0.103943
    11  C    0.606681
    12  C    0.048035
    13  C    0.078825
    14  C    0.004970
    15  C    0.080293
    16  O   -0.397301
    17  O   -0.400107
    29  O   -0.627441
    30  O   -0.609358
    31  C   -0.005889
    32  O   -0.624032
    33  C    0.004645
    34  C   -0.006730
    35  O   -0.184524
    36  C   -0.010137
    37  C    0.009108
    38  C    0.012719
    39  C   -0.103125
    40  C    0.137559
    41  C   -0.026611
    42  C   -0.104461
    43  C    0.099966
    44  C    0.135715
    45  C   -0.057287
    46  C    0.210150
    47  C   -0.142469
    48  C    0.105927
    49  C    0.041083
    50  C    0.113395
    51  C    0.026678
    52  C   -0.024166
    53  C    0.013239
    54  C    0.206940
    55  C    0.005909
    56  C   -0.004466
    57  C   -0.027608
    58  C   -0.060473
    59  C    0.029532
    60  C   -0.082638
    61  C   -0.023807
    62  C    0.095835
    63  C   -0.136036
    64  C    0.114618
    65  C    0.102770
    66  C    0.043116
    67  C    0.005875
    68  P    1.321913
 APT charges:
               1
     1  O   -0.314569
     2  N   -0.498835
     3  O   -0.072047
     4  O    0.094674
     5  C   -1.183412
     6  N   -0.848944
     7  C    1.006683
     8  C   -0.165846
     9  C   -0.686047
    10  C    0.065955
    11  C   -0.223125
    12  C   -0.456970
    13  C   -0.527261
    14  C   -0.644561
    15  C   -0.492133
    16  O    0.595563
    17  O    0.065102
    18  H    0.076492
    19  H    0.143902
    20  H    0.550362
    21  H    0.164459
    22  H    0.289953
    23  H    0.713754
    24  H    0.499086
    25  H    0.649818
    26  H   -0.110981
    27  H    1.321603
    28  H    0.477301
    29  O   -0.753818
    30  O   -0.268017
    31  C   -1.500958
    32  O   -0.273969
    33  C   -1.085040
    34  C   -1.479230
    35  O   -0.404757
    36  C   -0.984782
    37  C   -1.271095
    38  C   -1.171010
    39  C   -0.477729
    40  C   -0.400745
    41  C   -0.461876
    42  C   -0.511830
    43  C    0.310903
    44  C    0.038299
    45  C   -0.397579
    46  C   -0.515676
    47  C   -0.050999
    48  C   -0.246114
    49  C   -0.902478
    50  C   -0.085904
    51  C    0.443880
    52  C   -0.384282
    53  C   -0.455339
    54  C   -0.275607
    55  C   -1.517508
    56  C   -0.535451
    57  C   -0.476855
    58  C   -0.418142
    59  C    0.427378
    60  C   -0.429472
    61  C   -0.487040
    62  C   -0.054381
    63  C   -0.506230
    64  C   -0.306805
    65  C    0.309491
    66  C   -0.810233
    67  C   -1.816465
    68  P    0.671594
    69  H    0.450903
    70  H    1.075930
    71  H    0.066286
    72  H   -0.195429
    73  H    0.689433
    74  H    0.671782
    75  H    0.247148
    76  H    0.435637
    77  H    0.890618
    78  H    0.658900
    79  H    0.033472
    80  H    0.342527
    81  H    0.497944
    82  H    0.073010
    83  H    0.799296
    84  H    0.479169
    85  H    0.911477
    86  H   -0.135123
    87  H    0.660184
    88  H    1.273577
    89  H    0.535965
    90  H   -0.005018
    91  H    0.955253
    92  H    0.933815
    93  H    0.568406
    94  H    0.900588
    95  H    0.945014
    96  H    0.752609
    97  H    0.583555
    98  H    0.395933
    99  H    0.776354
   100  H    0.067235
   101  H    0.823979
   102  H    0.865466
 Sum of APT charges =  -0.00000
 APT charges with hydrogens summed into heavy atoms:
               1
     1  O   -0.314569
     2  N   -0.354933
     3  O    0.478315
     4  O    0.094674
     5  C   -0.015247
     6  N   -0.848944
     7  C    1.006683
     8  C   -0.165846
     9  C   -0.686047
    10  C    0.142446
    11  C   -0.223125
    12  C    0.042117
    13  C    0.122557
    14  C   -0.755542
    15  C    0.829470
    16  O    0.595563
    17  O    0.065102
    29  O   -0.753818
    30  O   -0.268017
    31  C    0.092161
    32  O   -0.273969
    33  C    0.080746
    34  C    0.094173
    35  O    0.072543
    36  C    0.050118
    37  C    0.099156
    38  C    0.084512
    39  C    0.182455
    40  C   -0.400745
    41  C    0.811701
    42  C    0.024135
    43  C    0.310903
    44  C    0.038299
    45  C   -0.397579
    46  C   -0.515676
    47  C   -0.050999
    48  C   -0.246114
    49  C    0.047757
    50  C   -0.085904
    51  C    0.443880
    52  C    0.549534
    53  C   -0.455339
    54  C   -0.275607
    55  C   -0.048515
    56  C   -0.535451
    57  C    0.468159
    58  C   -0.418142
    59  C    0.427378
    60  C    0.323137
    61  C    0.096515
    62  C   -0.054381
    63  C   -0.110296
    64  C   -0.306805
    65  C    0.309491
    66  C    0.033356
    67  C   -0.127019
    68  P    0.671594
 Electronic spatial extent (au):  <R**2>=          38691.9839
 Charge=             -0.0000 electrons
 Dipole moment (field-independent basis, Debye):
    X=             -3.2670    Y=             -0.3180    Z=             -1.8024  Tot=              3.7448
 Quadrupole moment (field-independent basis, Debye-Ang):
   XX=           -345.3523   YY=           -322.0134   ZZ=           -347.5189
   XY=             17.3011   XZ=             16.9960   YZ=             -3.1047
 Traceless Quadrupole moment (field-independent basis, Debye-Ang):
   XX=             -7.0574   YY=             16.2814   ZZ=             -9.2241
   XY=             17.3011   XZ=             16.9960   YZ=             -3.1047
 Octapole moment (field-independent basis, Debye-Ang**2):
  XXX=           -400.4500  YYY=             20.7298  ZZZ=              8.2606  XYY=              0.0994
  XXY=              6.6029  XXZ=            200.6889  XZZ=            -51.5640  YZZ=            -20.1941
  YYZ=            -33.4914  XYZ=            -65.6542
 Hexadecapole moment (field-independent basis, Debye-Ang**3):
 XXXX=         -34376.5190 YYYY=         -13160.1742 ZZZZ=          -7085.7530 XXXY=            743.8160
 XXXZ=           1703.1274 YYYX=            110.2402 YYYZ=            285.5594 ZZZX=            209.1549
 ZZZY=           -110.2123 XXYY=          -7527.1096 XXZZ=          -7203.4574 YYZZ=          -3314.8992
 XXYZ=           -153.9467 YYXZ=           -101.2894 ZZXY=             84.3419
 N-N= 8.972193630658D+03 E-N=-2.463573026050D+04  KE= 2.846484266782D+03
  Exact polarizability:       0.000       0.000       0.000       0.000       0.000       0.000
 Approx polarizability:     707.243      11.726     568.647      -0.619      49.333     662.625
 Leave Link  601 at Sat Oct 29 18:31:56 2022, MaxMem=  8053063680 cpu:               8.0 elap:               0.6
 (Enter /project/chenjingdan/g16/l9999.exe)

 This type of calculation cannot be archived.


 ... A MOLECULAR SYSTEM ... (PASSES) ... FROM ONE STATE OF EQUILIBRIUM 
 TO ANOTHER ... BY MEANS OF ALL POSSIBLE INTERMEDIATE PATHS, 
 BUT THE PATH MOST ECONOMICAL OF ENERGY WILL BE THE MORE OFTEN TRAVELED.

                      -- HENRY EYRING, 1945
 Job cpu time:       5 days  3 hours  3 minutes 29.0 seconds.
 Elapsed time:       0 days  7 hours 42 minutes 33.8 seconds.
 File lengths (MBytes):  RWF=  11520 Int=      0 D2E=      0 Chk=     99 Scr=      1
 Normal termination of Gaussian 16 at Sat Oct 29 18:31:58 2022.
