 Entering Gaussian System, Link 0=g16
 Initial command:
 /project/chenjingdan/g16/l1.exe "/scratch/chenjingdan/scratch/Gau-273061.inp" -scrdir="/scratch/chenjingdan/scratch/"
 Entering Link 1 = /project/chenjingdan/g16/l1.exe PID=    273077.
  
 Copyright (c) 1988-2019, Gaussian, Inc.  All Rights Reserved.
  
 This is part of the Gaussian(R) 16 program.  It is based on
 the Gaussian(R) 09 system (copyright 2009, Gaussian, Inc.),
 the Gaussian(R) 03 system (copyright 2003, Gaussian, Inc.),
 the Gaussian(R) 98 system (copyright 1998, Gaussian, Inc.),
 the Gaussian(R) 94 system (copyright 1995, Gaussian, Inc.),
 the Gaussian 92(TM) system (copyright 1992, Gaussian, Inc.),
 the Gaussian 90(TM) system (copyright 1990, Gaussian, Inc.),
 the Gaussian 88(TM) system (copyright 1988, Gaussian, Inc.),
 the Gaussian 86(TM) system (copyright 1986, Carnegie Mellon
 University), and the Gaussian 82(TM) system (copyright 1983,
 Carnegie Mellon University). Gaussian is a federally registered
 trademark of Gaussian, Inc.
  
 This software contains proprietary and confidential information,
 including trade secrets, belonging to Gaussian, Inc.
  
 This software is provided under written license and may be
 used, copied, transmitted, or stored only in accord with that
 written license.
  
 The following legend is applicable only to US Government
 contracts under FAR:
  
                    RESTRICTED RIGHTS LEGEND
  
 Use, reproduction and disclosure by the US Government is
 subject to restrictions as set forth in subparagraphs (a)
 and (c) of the Commercial Computer Software - Restricted
 Rights clause in FAR 52.227-19.
  
 Gaussian, Inc.
 340 Quinnipiac St., Bldg. 40, Wallingford CT 06492
  
  
 ---------------------------------------------------------------
 Warning -- This program may not be used in any manner that
 competes with the business of Gaussian, Inc. or will provide
 assistance to any competitor of Gaussian, Inc.  The licensee
 of this program is prohibited from giving any competitor of
 Gaussian, Inc. access to this program.  By using this program,
 the user acknowledges that Gaussian, Inc. is engaged in the
 business of creating and licensing software in the field of
 computational chemistry and represents and warrants to the
 licensee that it is not a competitor of Gaussian, Inc. and that
 it will not use this program in any manner prohibited above.
 ---------------------------------------------------------------
  

 Cite this work as:
 Gaussian 16, Revision C.01,
 M. J. Frisch, G. W. Trucks, H. B. Schlegel, G. E. Scuseria, 
 M. A. Robb, J. R. Cheeseman, G. Scalmani, V. Barone, 
 G. A. Petersson, H. Nakatsuji, X. Li, M. Caricato, A. V. Marenich, 
 J. Bloino, B. G. Janesko, R. Gomperts, B. Mennucci, H. P. Hratchian, 
 J. V. Ortiz, A. F. Izmaylov, J. L. Sonnenberg, D. Williams-Young, 
 F. Ding, F. Lipparini, F. Egidi, J. Goings, B. Peng, A. Petrone, 
 T. Henderson, D. Ranasinghe, V. G. Zakrzewski, J. Gao, N. Rega, 
 G. Zheng, W. Liang, M. Hada, M. Ehara, K. Toyota, R. Fukuda, 
 J. Hasegawa, M. Ishida, T. Nakajima, Y. Honda, O. Kitao, H. Nakai, 
 T. Vreven, K. Throssell, J. A. Montgomery, Jr., J. E. Peralta, 
 F. Ogliaro, M. J. Bearpark, J. J. Heyd, E. N. Brothers, K. N. Kudin, 
 V. N. Staroverov, T. A. Keith, R. Kobayashi, J. Normand, 
 K. Raghavachari, A. P. Rendell, J. C. Burant, S. S. Iyengar, 
 J. Tomasi, M. Cossi, J. M. Millam, M. Klene, C. Adamo, R. Cammi, 
 J. W. Ochterski, R. L. Martin, K. Morokuma, O. Farkas, 
 J. B. Foresman, and D. J. Fox, Gaussian, Inc., Wallingford CT, 2019.
 
 ******************************************
 Gaussian 16:  ES64L-G16RevC.01  3-Jul-2019
                23-Oct-2022 
 ******************************************
 %nprocshared=16
 Will use up to   16 processors via shared memory.
 %mem=60GB
 %chk=rev_M1_DECB_conf2_irc.chk
 ------------------------------------------------------------
 #p irc=(calcfc,maxpoints=30,lqa,maxstep=15) 6-31g(d,p) m062x
 ------------------------------------------------------------
 1/8=15,10=4,18=10,26=3,38=1,42=30,44=3,45=2,172=1/1,23;
 2/12=2,17=6,18=5,29=1,40=1/2;
 3/5=1,6=6,7=101,11=2,25=1,30=1,71=2,74=-55,140=1/1,2,3;
 4//1;
 5/5=2,38=5/2;
 8/6=4,10=90,11=11/1;
 11/6=1,8=1,9=11,15=111,16=1/1,2,10;
 10/6=1,13=1/2;
 6/7=2,8=2,9=2,10=2,28=1/1;
 7/10=1,25=1/1,2,3,16;
 1/8=15,10=4,18=10,26=3,42=30,44=3,45=2/23(2);
 2/29=1/2;
 99/5=20/99;
 2/29=1/2;
 3/5=1,6=6,7=101,11=2,25=1,30=1,71=2,74=-55,140=1/1,2,3;
 4/5=5,16=3,69=1/1;
 5/5=2,38=5/2;
 8/6=4,10=90,11=11/1;
 11/6=1,8=1,9=11,15=111,16=1/1,2,10;
 10/6=1,13=1/2;
 7/10=1,25=1/1,2,3,16;
 1/8=15,18=10,26=3,42=30,44=3,45=2/23(-8);
 2/29=1/2;
 6/7=2,8=2,9=2,10=2,19=2,28=1/1;
 99/5=20,9=1/99;
 Leave Link    1 at Sun Oct 23 01:12:53 2022, MaxMem=  8053063680 cpu:               1.3 elap:               0.1
 (Enter /project/chenjingdan/g16/l101.exe)
 -----
 TITLE
 -----
 Symbolic Z-matrix:
 Charge =  0 Multiplicity = 1
 N                     1.26588   0.55607   0.08361 
 O                     2.54196  -1.5179   -1.21589 
 O                     4.70222   0.6049    1.13004 
 C                     3.08182   2.07254  -0.49469 
 O                     0.80732  -1.5899    0.84192 
 O                     3.13915  -0.89544   1.6641 
 O                     3.74064   0.1037   -2.29872 
 C                    -1.58223   1.03307   0.48381 
 C                    -1.00227  -0.22284   0.28109 
 C                    -1.79329  -1.3296   -0.03936 
 C                     3.06947  -0.43091  -1.44171 
 C                     2.71672   0.65157  -0.12322 
 C                    -2.95411   1.19345   0.34609 
 C                    -3.71306   0.0824    0.00813 
 C                     3.4942    0.05939   0.98955 
 C                     0.46177  -0.43159   0.4041 
 C                    -3.16548  -1.1775   -0.18628 
 H                     0.77974   1.35006  -0.3167 
 H                     1.80234  -1.65414   0.891 
 H                     5.1827    0.06391   1.77608 
 H                     4.13191   2.08527  -0.77938 
 H                     2.51763   2.37281  -1.38211 
 H                     2.91334   2.78267   0.321 
 H                    -0.978     1.88154   0.79045 
 H                    -1.32369  -2.29594  -0.18147 
 H                    -3.44119   2.14696   0.50548 
 H                    -3.80994  -2.00778  -0.44592 
 N                    -5.17306   0.24903  -0.13964 
 O                    -5.81836  -0.73781  -0.43179 
 O                    -5.62617   1.36235   0.04143 
 
 ITRead=  0  0  0  0  0  0  0  0  0  0  0  0  0  0  0  0  0  0  0  0
 ITRead=  0  0  0  0  0  0  0  0  0  0
 MicOpt= -1 -1 -1 -1 -1 -1 -1 -1 -1 -1 -1 -1 -1 -1 -1 -1 -1 -1 -1 -1
 MicOpt= -1 -1 -1 -1 -1 -1 -1 -1 -1 -1
 NAtoms=     30 NQM=       30 NQMF=       0 NMMI=      0 NMMIF=      0
                NMic=       0 NMicF=      0.
                    Isotopes and Nuclear Properties:
 (Nuclear quadrupole moments (NQMom) in fm**2, nuclear magnetic moments (NMagM)
  in nuclear magnetons)

  Atom         1           2           3           4           5           6           7           8           9          10
 IAtWgt=          14          16          16          12          16          16          16          12          12          12
 AtmWgt=  14.0030740  15.9949146  15.9949146  12.0000000  15.9949146  15.9949146  15.9949146  12.0000000  12.0000000  12.0000000
 NucSpn=           2           0           0           0           0           0           0           0           0           0
 AtZEff=  -0.0000000  -0.0000000  -0.0000000  -0.0000000  -0.0000000  -0.0000000  -0.0000000  -0.0000000  -0.0000000  -0.0000000
 NQMom=    2.0440000   0.0000000   0.0000000   0.0000000   0.0000000   0.0000000   0.0000000   0.0000000   0.0000000   0.0000000
 NMagM=    0.4037610   0.0000000   0.0000000   0.0000000   0.0000000   0.0000000   0.0000000   0.0000000   0.0000000   0.0000000
 AtZNuc=   7.0000000   8.0000000   8.0000000   6.0000000   8.0000000   8.0000000   8.0000000   6.0000000   6.0000000   6.0000000

  Atom        11          12          13          14          15          16          17          18          19          20
 IAtWgt=          12          12          12          12          12          12          12           1           1           1
 AtmWgt=  12.0000000  12.0000000  12.0000000  12.0000000  12.0000000  12.0000000  12.0000000   1.0078250   1.0078250   1.0078250
 NucSpn=           0           0           0           0           0           0           0           1           1           1
 AtZEff=  -0.0000000  -0.0000000  -0.0000000  -0.0000000  -0.0000000  -0.0000000  -0.0000000  -0.0000000  -0.0000000  -0.0000000
 NQMom=    0.0000000   0.0000000   0.0000000   0.0000000   0.0000000   0.0000000   0.0000000   0.0000000   0.0000000   0.0000000
 NMagM=    0.0000000   0.0000000   0.0000000   0.0000000   0.0000000   0.0000000   0.0000000   2.7928460   2.7928460   2.7928460
 AtZNuc=   6.0000000   6.0000000   6.0000000   6.0000000   6.0000000   6.0000000   6.0000000   1.0000000   1.0000000   1.0000000

  Atom        21          22          23          24          25          26          27          28          29          30
 IAtWgt=           1           1           1           1           1           1           1          14          16          16
 AtmWgt=   1.0078250   1.0078250   1.0078250   1.0078250   1.0078250   1.0078250   1.0078250  14.0030740  15.9949146  15.9949146
 NucSpn=           1           1           1           1           1           1           1           2           0           0
 AtZEff=  -0.0000000  -0.0000000  -0.0000000  -0.0000000  -0.0000000  -0.0000000  -0.0000000  -0.0000000  -0.0000000  -0.0000000
 NQMom=    0.0000000   0.0000000   0.0000000   0.0000000   0.0000000   0.0000000   0.0000000   2.0440000   0.0000000   0.0000000
 NMagM=    2.7928460   2.7928460   2.7928460   2.7928460   2.7928460   2.7928460   2.7928460   0.4037610   0.0000000   0.0000000
 AtZNuc=   1.0000000   1.0000000   1.0000000   1.0000000   1.0000000   1.0000000   1.0000000   7.0000000   8.0000000   8.0000000
 Leave Link  101 at Sun Oct 23 01:12:53 2022, MaxMem=  8053063680 cpu:               1.5 elap:               0.1
 (Enter /project/chenjingdan/g16/l123.exe)
 IRC-IRC-IRC-IRC-IRC-IRC-IRC-IRC-IRC-IRC-IRC-IRC-IRC-IRC-IRC-IRC-IRC-IRC
 ------------------------------------------------------------------------
 INPUT DATA FOR L123
 ------------------------------------------------------------------------
 GENERAL PARAMETERS:
 Follow reaction path in both directions.
 Maximum points per path      =  30
 Step size                    =   0.100 bohr
 Integration scheme           = LQA                                 
 Initial Hessian              = CalcFC
 Hessian evaluation           = All updating
 Hessian updating method      = Bofill                              
 ------------------------------------------------------------------------
 IRC-IRC-IRC-IRC-IRC-IRC-IRC-IRC-IRC-IRC-IRC-IRC-IRC-IRC-IRC-IRC-IRC-IRC
 Leave Link  123 at Sun Oct 23 01:12:53 2022, MaxMem=  8053063680 cpu:               0.0 elap:               0.0
 (Enter /project/chenjingdan/g16/l202.exe)
                          Input orientation:                          
 ---------------------------------------------------------------------
 Center     Atomic      Atomic             Coordinates (Angstroms)
 Number     Number       Type             X           Y           Z
 ---------------------------------------------------------------------
      1          7           0        1.265883    0.556073    0.083606
      2          8           0        2.541962   -1.517901   -1.215891
      3          8           0        4.702224    0.604898    1.130044
      4          6           0        3.081822    2.072540   -0.494687
      5          8           0        0.807315   -1.589899    0.841917
      6          8           0        3.139150   -0.895437    1.664104
      7          8           0        3.740644    0.103699   -2.298721
      8          6           0       -1.582226    1.033071    0.483810
      9          6           0       -1.002270   -0.222843    0.281088
     10          6           0       -1.793286   -1.329604   -0.039363
     11          6           0        3.069472   -0.430910   -1.441710
     12          6           0        2.716715    0.651569   -0.123222
     13          6           0       -2.954108    1.193448    0.346090
     14          6           0       -3.713064    0.082396    0.008125
     15          6           0        3.494198    0.059385    0.989548
     16          6           0        0.461769   -0.431588    0.404097
     17          6           0       -3.165475   -1.177502   -0.186276
     18          1           0        0.779742    1.350058   -0.316703
     19          1           0        1.802343   -1.654142    0.890995
     20          1           0        5.182698    0.063908    1.776078
     21          1           0        4.131913    2.085270   -0.779381
     22          1           0        2.517625    2.372805   -1.382106
     23          1           0        2.913340    2.782665    0.320998
     24          1           0       -0.978004    1.881539    0.790450
     25          1           0       -1.323689   -2.295940   -0.181472
     26          1           0       -3.441185    2.146963    0.505479
     27          1           0       -3.809941   -2.007783   -0.445919
     28          7           0       -5.173062    0.249026   -0.139636
     29          8           0       -5.818358   -0.737807   -0.431785
     30          8           0       -5.626169    1.362348    0.041430
 ---------------------------------------------------------------------
                    Distance matrix (angstroms):
                    1          2          3          4          5
     1  N    0.000000
     2  O    2.760152   0.000000
     3  O    3.592472   3.830981   0.000000
     4  C    2.435514   3.701736   2.723862   0.000000
     5  O    2.321748   2.692352   4.480007   4.513685   0.000000
     6  O    2.848506   3.006404   2.231463   3.670498   2.568214
     7  O    3.464761   2.288874   3.596146   2.750440   4.619123
     8  C    2.915376   5.138615   6.332082   4.877632   3.566247
     9  C    2.406289   4.059520   5.826417   4.748728   2.336230
    10  C    3.595749   4.496004   6.877606   5.962263   2.758176
    11  C    2.560011   1.229150   3.217561   2.676615   3.416952
    12  C    1.468608   2.435378   2.348425   1.513423   3.098626
    13  C    4.275917   6.324396   7.718834   6.157285   4.705440
    14  C    5.001998   6.571493   8.505809   7.098167   4.891381
    15  C    2.456179   2.873769   1.332910   2.534916   3.156148
    16  C    1.313312   2.851603   4.425241   3.734052   1.285602
    17  C    4.766031   5.809545   8.173759   7.048873   4.124356
    18  H    1.013406   3.484128   4.246670   2.419345   3.160144
    19  H    2.413445   2.237089   3.683710   4.176762   0.998307
    20  H    4.295128   4.292725   0.969992   3.688449   4.769875
    21  H    3.361148   3.962490   2.482470   1.088073   5.214252
    22  H    2.648714   3.894331   3.769465   1.093613   4.855354
    23  H    2.779961   4.582010   2.932120   1.094534   4.881190
    24  H    2.700281   5.288833   5.831820   4.262657   3.903959
    25  H    3.861363   4.076595   6.815172   6.212105   2.467184
    26  H    4.986522   7.224430   8.311628   6.599658   5.668076
    27  H    5.711195   6.417127   9.042495   8.009233   4.811673
    28  N    6.450126   7.987612   9.962932   8.461346   6.333246
    29  O    7.219849   8.433168  10.720299   9.333553   6.800582
    30  O    6.939181   8.751860  10.413189   8.753337   7.123641
                    6          7          8          9         10
     6  O    0.000000
     7  O    4.130865   0.000000
     8  C    5.234848   6.077759   0.000000
     9  C    4.417746   5.409000   1.398129   0.000000
    10  C    5.236337   6.146823   2.429092   1.397610   0.000000
    11  C    3.141134   1.212743   5.243011   4.426105   5.140101
    12  C    2.401294   2.466047   4.358317   3.841733   4.926681
    13  C    6.574830   7.280267   1.388073   2.412421   2.803903
    14  C    7.116970   7.802548   2.381287   2.741548   2.383600
    15  C    1.221790   3.297789   5.193642   4.560679   5.562862
    16  C    2.995187   4.282847   2.515849   1.483953   2.467461
    17  C    6.576607   7.334738   2.800415   2.410240   1.388388
    18  H    3.812171   3.774751   2.514000   2.450906   3.725316
    19  H    1.720577   4.125688   4.340763   3.207251   3.728195
    20  H    2.260303   4.322625   6.955101   6.369541   7.341802
    21  H    3.980052   2.527471   5.945936   5.728160   6.878733
    22  H    4.510775   2.735836   4.699501   4.679024   5.839071
    23  H    3.922162   3.837215   4.826769   4.936261   6.260427
    24  H    5.042403   5.913487   1.085822   2.165286   3.415364
    25  H    5.028369   5.990699   3.404667   2.148256   1.083753
    26  H    7.341622   7.976035   2.167246   3.408026   3.885736
    27  H    7.347066   8.056213   3.882512   3.405520   2.166128
    28  N    8.582316   9.172618   3.727937   4.218433   3.731623
    29  O    9.200791   9.775894   4.681788   4.895721   4.087227
    30  O    9.195732   9.736411   4.081372   4.893946   4.684456
                   11         12         13         14         15
    11  C    0.000000
    12  C    1.742013   0.000000
    13  C    6.489860   5.715953   0.000000
    14  C    6.954732   6.456258   1.387325   0.000000
    15  C    2.516306   1.481020   6.578814   7.273812   0.000000
    16  C    3.194858   2.556575   3.783163   4.224950   3.127208
    17  C    6.403755   6.160328   2.439158   1.387440   6.874860
    18  H    3.111326   2.068136   3.795452   4.679507   3.277255
    19  H    2.922914   2.679742   5.570414   5.849337   2.410033
    20  H    3.881331   3.167611   8.338365   9.069762   1.862708
    21  H    2.810449   2.118686   7.230057   8.134822   2.764055
    22  H    2.858130   2.141747   5.858106   6.782345   3.454034
    23  H    3.668594   2.185764   6.078913   7.162302   2.863671
    24  H    5.168367   3.999821   2.139138   3.365932   4.833268
    25  H    4.936233   5.001606   3.887469   3.376617   5.489160
    26  H    7.268124   6.367982   1.082515   2.140961   7.258915
    27  H    7.127724   7.055035   3.406994   2.141119   7.725555
    28  N    8.372400   7.900056   2.460004   1.476886   8.742563
    29  O    8.950288   8.652921   3.541012   2.301851   9.454068
    30  O    9.001647   8.374726   2.694672   2.302033   9.261627
                   16         17         18         19         20
    16  C    0.000000
    17  C    3.749910   0.000000
    18  H    1.948056   4.687250   0.000000
    19  H    1.878522   5.105577   3.395507   0.000000
    20  H    4.941156   8.665098   5.041819   3.893824   0.000000
    21  H    4.604905   8.015568   3.462897   4.711715   3.423511
    22  H    3.909180   6.806784   2.280643   4.679201   4.733682
    23  H    4.043331   7.272705   2.647879   4.609172   3.828692
    24  H    2.751867   3.885454   2.144279   4.499053   6.498422
    25  H    2.646991   2.154786   4.211414   3.366625   7.192632
    26  H    4.678916   3.406847   4.373473   6.487805   8.962416
    27  H    4.631892   1.082644   5.688320   5.780150   9.491930
    28  N    5.701772   2.463242   6.056360   7.303460  10.533090
    29  O    6.342907   2.700258   6.921513   7.788742  11.249028
    30  O    6.357100   3.543685   6.415926   8.062491  11.023908
                   21         22         23         24         25
    21  H    0.000000
    22  H    1.746963   0.000000
    23  H    1.783848   1.795867   0.000000
    24  H    5.349498   4.144969   4.021812   0.000000
    25  H    7.022542   6.163959   6.633032   4.302960   0.000000
    26  H    7.681568   6.254710   6.388907   2.493776   4.969414
    27  H    8.940768   7.752683   8.290902   4.967424   2.516827
    28  N    9.505978   8.074703   8.486543   4.596593   4.614789
    29  O   10.348840   8.948052   9.444732   5.637718   4.763663
    30  O    9.819191   8.328797   8.661332   4.736668   5.651910
                   26         27         28         29         30
    26  H    0.000000
    27  H    4.278207   0.000000
    28  N    2.649101   2.654260   0.000000
    29  O    3.853740   2.376295   1.214742   0.000000
    30  O    2.367513   3.859271   1.215556   2.161370   0.000000
 Symmetry turned off by external request.
 Stoichiometry    C11H10N2O7
 Framework group  C1[X(C11H10N2O7)]
 Deg. of freedom    84
 Full point group                 C1      NOp   1
 Rotational constants (GHZ):           0.9157785           0.1417724           0.1391842
 Leave Link  202 at Sun Oct 23 01:12:53 2022, MaxMem=  8053063680 cpu:               0.1 elap:               0.0
 (Enter /project/chenjingdan/g16/l301.exe)
 Standard basis: 6-31G(d,p) (6D, 7F)
 Ernie: Thresh=  0.10000D-02 Tol=  0.10000D-05 Strict=F.
   350 basis functions,   630 primitive gaussians,   350 cartesian basis functions
    73 alpha electrons       73 beta electrons
       nuclear repulsion energy      1549.4490715892 Hartrees.
 IExCor= 4336 DFT=T Ex+Corr=M062X ExCW=0 ScaHFX=  0.540000
 ScaDFX=  1.000000  1.000000  1.000000  1.000000 ScalE2=  1.000000  1.000000
 IRadAn=      5 IRanWt=     -1 IRanGd=            0 ICorTp=0 IEmpDi=  4
 NAtoms=   30 NActive=   30 NUniq=   30 SFac= 1.00D+00 NAtFMM=   60 NAOKFM=F Big=F
 Integral buffers will be    131072 words long.
 Raffenetti 2 integral format.
 Two-electron integral symmetry is turned off.
 Leave Link  301 at Sun Oct 23 01:12:54 2022, MaxMem=  8053063680 cpu:               0.8 elap:               0.1
 (Enter /project/chenjingdan/g16/l302.exe)
 NPDir=0 NMtPBC=     1 NCelOv=     1 NCel=       1 NClECP=     1 NCelD=      1
         NCelK=      1 NCelE2=     1 NClLst=     1 CellRange=     0.0.
 One-electron integrals computed using PRISM.
 NBasis=   350 RedAO= T EigKep=  4.06D-04  NBF=   350
 NBsUse=   350 1.00D-06 EigRej= -1.00D+00 NBFU=   350
 Precomputing XC quadrature grid using
 IXCGrd= 4 IRadAn=           5 IRanWt=          -1 IRanGd=           0 AccXCQ= 0.00D+00.
 Generated NRdTot=       0 NPtTot=           0 NUsed=           0 NTot=          32
 NSgBfM=   345   345   345   345   345 MxSgAt=    30 MxSgA2=    30.
 Leave Link  302 at Sun Oct 23 01:12:54 2022, MaxMem=  8053063680 cpu:               3.9 elap:               0.3
 (Enter /project/chenjingdan/g16/l303.exe)
 DipDrv:  MaxL=1.
 Leave Link  303 at Sun Oct 23 01:12:54 2022, MaxMem=  8053063680 cpu:               0.5 elap:               0.1
 (Enter /project/chenjingdan/g16/l401.exe)
 ExpMin= 1.61D-01 ExpMax= 5.48D+03 ExpMxC= 8.25D+02 IAcc=3 IRadAn=         5 AccDes= 0.00D+00
 Harris functional with IExCor= 1009 and IRadAn=       5 diagonalized for initial guess.
 HarFok:  IExCor= 1009 AccDes= 0.00D+00 IRadAn=         5 IDoV= 1 UseB2=F ITyADJ=14
 ICtDFT=  3500011 ScaDFX=  1.000000  1.000000  1.000000  1.000000
 FoFCou: FMM=F IPFlag=           0 FMFlag=      100000 FMFlg1=           0
         NFxFlg=           0 DoJE=T BraDBF=F KetDBF=T FulRan=T
         wScrn=  0.000000 ICntrl=       500 IOpCl=  0 I1Cent=   200000004 NGrid=           0
         NMat0=    1 NMatS0=      1 NMatT0=    0 NMatD0=    1 NMtDS0=    0 NMtDT0=    0
 Symmetry not used in FoFCou.
 Harris En= -1060.27789072754    
 JPrj=0 DoOrth=F DoCkMO=F.
 Leave Link  401 at Sun Oct 23 01:12:55 2022, MaxMem=  8053063680 cpu:              10.5 elap:               0.7
 (Enter /project/chenjingdan/g16/l502.exe)
 Two-electron integral symmetry not used.
 Closed shell SCF:
 Using DIIS extrapolation, IDIIS=  1040.
 NGot=  8053063680 LenX=  8052809544 LenY=  8052686603
 Requested convergence on RMS density matrix=1.00D-08 within 128 cycles.
 Requested convergence on MAX density matrix=1.00D-06.
 Requested convergence on             energy=1.00D-06.
 No special actions if energy rises.
 Fock matrices will be formed incrementally for  20 cycles.
 Integral accuracy reduced to 1.0D-05 until final iterations.

 Cycle   1  Pass 0  IDiag  1:
 FoFJK:  IHMeth= 1 ICntrl=       0 DoSepK=F KAlg= 0 I1Cent=           0 FoldK=F
 IRaf= 740000000 NMat=       1 IRICut=       1 DoRegI=T DoRafI=F ISym2E= 0 IDoP0=0 IntGTp=1.
 FoFCou: FMM=F IPFlag=           0 FMFlag=      100000 FMFlg1=           0
         NFxFlg=           0 DoJE=F BraDBF=F KetDBF=F FulRan=T
         wScrn=  0.000000 ICntrl=         0 IOpCl=  0 I1Cent=           0 NGrid=           0
         NMat0=    1 NMatS0=      1 NMatT0=    0 NMatD0=    1 NMtDS0=    0 NMtDT0=    0
 Symmetry not used in FoFCou.
 E= -1060.24491805661    
 DIIS: error= 2.99D-02 at cycle   1 NSaved=   1.
 NSaved= 1 IEnMin= 1 EnMin= -1060.24491805661     IErMin= 1 ErrMin= 2.99D-02
 ErrMax= 2.99D-02  0.00D+00 EMaxC= 1.00D-01 BMatC= 7.21D-01 BMatP= 7.21D-01
 IDIUse=3 WtCom= 7.01D-01 WtEn= 2.99D-01
 Coeff-Com:  0.100D+01
 Coeff-En:   0.100D+01
 Coeff:      0.100D+01
 Gap=     0.168 Goal=   None    Shift=    0.000
 GapD=    0.168 DampG=1.000 DampE=0.500 DampFc=0.5000 IDamp=-1.
 Damping current iteration by 5.00D-01
 RMSDP=4.12D-03 MaxDP=1.78D-01              OVMax= 2.58D-01

 Cycle   2  Pass 0  IDiag  1:
 RMSU=  2.05D-03    CP:  9.90D-01
 E= -1060.46705135492     Delta-E=       -0.222133298305 Rises=F Damp=T
 DIIS: error= 1.10D-02 at cycle   2 NSaved=   2.
 NSaved= 2 IEnMin= 2 EnMin= -1060.46705135492     IErMin= 2 ErrMin= 1.10D-02
 ErrMax= 1.10D-02  0.00D+00 EMaxC= 1.00D-01 BMatC= 6.59D-02 BMatP= 7.21D-01
 IDIUse=3 WtCom= 8.90D-01 WtEn= 1.10D-01
 Coeff-Com:  0.700D-01 0.930D+00
 Coeff-En:   0.133D+00 0.867D+00
 Coeff:      0.770D-01 0.923D+00
 Gap=     0.234 Goal=   None    Shift=    0.000
 RMSDP=1.03D-03 MaxDP=4.92D-02 DE=-2.22D-01 OVMax= 1.75D-01

 Cycle   3  Pass 0  IDiag  1:
 RMSU=  1.02D-03    CP:  9.83D-01  9.59D-01
 E= -1060.74873497772     Delta-E=       -0.281683622807 Rises=F Damp=F
 DIIS: error= 5.88D-03 at cycle   3 NSaved=   3.
 NSaved= 3 IEnMin= 3 EnMin= -1060.74873497772     IErMin= 3 ErrMin= 5.88D-03
 ErrMax= 5.88D-03  0.00D+00 EMaxC= 1.00D-01 BMatC= 2.22D-02 BMatP= 6.59D-02
 IDIUse=3 WtCom= 9.41D-01 WtEn= 5.88D-02
 Coeff-Com: -0.421D-01 0.339D+00 0.703D+00
 Coeff-En:   0.000D+00 0.000D+00 0.100D+01
 Coeff:     -0.396D-01 0.319D+00 0.721D+00
 Gap=     0.191 Goal=   None    Shift=    0.000
 RMSDP=5.18D-04 MaxDP=2.34D-02 DE=-2.82D-01 OVMax= 3.32D-02

 Cycle   4  Pass 0  IDiag  1:
 RMSU=  3.72D-04    CP:  9.86D-01  1.01D+00  6.70D-01
 E= -1060.76294046527     Delta-E=       -0.014205487544 Rises=F Damp=F
 DIIS: error= 1.85D-03 at cycle   4 NSaved=   4.
 NSaved= 4 IEnMin= 4 EnMin= -1060.76294046527     IErMin= 4 ErrMin= 1.85D-03
 ErrMax= 1.85D-03  0.00D+00 EMaxC= 1.00D-01 BMatC= 4.96D-03 BMatP= 2.22D-02
 IDIUse=3 WtCom= 9.81D-01 WtEn= 1.85D-02
 Coeff-Com: -0.193D-01 0.612D-01 0.357D+00 0.602D+00
 Coeff-En:   0.000D+00 0.000D+00 0.160D+00 0.840D+00
 Coeff:     -0.190D-01 0.600D-01 0.353D+00 0.606D+00
 Gap=     0.187 Goal=   None    Shift=    0.000
 RMSDP=2.11D-04 MaxDP=8.67D-03 DE=-1.42D-02 OVMax= 1.38D-02

 Cycle   5  Pass 0  IDiag  1:
 RMSU=  1.11D-04    CP:  9.85D-01  1.01D+00  7.78D-01  6.23D-01
 E= -1060.76684976573     Delta-E=       -0.003909300460 Rises=F Damp=F
 DIIS: error= 5.88D-04 at cycle   5 NSaved=   5.
 NSaved= 5 IEnMin= 5 EnMin= -1060.76684976573     IErMin= 5 ErrMin= 5.88D-04
 ErrMax= 5.88D-04  0.00D+00 EMaxC= 1.00D-01 BMatC= 3.48D-04 BMatP= 4.96D-03
 IDIUse=3 WtCom= 9.94D-01 WtEn= 5.88D-03
 Coeff-Com: -0.678D-02 0.117D-01 0.139D+00 0.308D+00 0.548D+00
 Coeff-En:   0.000D+00 0.000D+00 0.000D+00 0.000D+00 0.100D+01
 Coeff:     -0.674D-02 0.117D-01 0.139D+00 0.306D+00 0.551D+00
 Gap=     0.187 Goal=   None    Shift=    0.000
 RMSDP=5.57D-05 MaxDP=2.25D-03 DE=-3.91D-03 OVMax= 3.59D-03

 Cycle   6  Pass 0  IDiag  1:
 RMSU=  3.75D-05    CP:  9.85D-01  1.01D+00  7.81D-01  6.79D-01  6.85D-01
 E= -1060.76713359998     Delta-E=       -0.000283834249 Rises=F Damp=F
 DIIS: error= 2.99D-04 at cycle   6 NSaved=   6.
 NSaved= 6 IEnMin= 6 EnMin= -1060.76713359998     IErMin= 6 ErrMin= 2.99D-04
 ErrMax= 2.99D-04  0.00D+00 EMaxC= 1.00D-01 BMatC= 2.25D-05 BMatP= 3.48D-04
 IDIUse=3 WtCom= 9.97D-01 WtEn= 2.99D-03
 Coeff-Com: -0.161D-02 0.100D-02 0.362D-01 0.903D-01 0.255D+00 0.619D+00
 Coeff-En:   0.000D+00 0.000D+00 0.000D+00 0.000D+00 0.000D+00 0.100D+01
 Coeff:     -0.161D-02 0.997D-03 0.361D-01 0.900D-01 0.254D+00 0.621D+00
 Gap=     0.187 Goal=   None    Shift=    0.000
 RMSDP=1.61D-05 MaxDP=1.30D-03 DE=-2.84D-04 OVMax= 1.93D-03

 Cycle   7  Pass 0  IDiag  1:
 RMSU=  1.32D-05    CP:  9.85D-01  1.01D+00  7.84D-01  6.85D-01  7.34D-01
                    CP:  8.30D-01
 E= -1060.76715070297     Delta-E=       -0.000017102999 Rises=F Damp=F
 DIIS: error= 1.91D-04 at cycle   7 NSaved=   7.
 NSaved= 7 IEnMin= 7 EnMin= -1060.76715070297     IErMin= 7 ErrMin= 1.91D-04
 ErrMax= 1.91D-04  0.00D+00 EMaxC= 1.00D-01 BMatC= 4.66D-06 BMatP= 2.25D-05
 IDIUse=3 WtCom= 9.98D-01 WtEn= 1.91D-03
 Coeff-Com:  0.259D-03-0.160D-02-0.318D-02-0.180D-02 0.538D-01 0.341D+00
 Coeff-Com:  0.612D+00
 Coeff-En:   0.000D+00 0.000D+00 0.000D+00 0.000D+00 0.000D+00 0.248D-01
 Coeff-En:   0.975D+00
 Coeff:      0.259D-03-0.160D-02-0.318D-02-0.180D-02 0.537D-01 0.340D+00
 Coeff:      0.612D+00
 Gap=     0.187 Goal=   None    Shift=    0.000
 RMSDP=7.70D-06 MaxDP=4.97D-04 DE=-1.71D-05 OVMax= 1.02D-03

 Initial convergence to 1.0D-05 achieved.  Increase integral accuracy.
 Cycle   8  Pass 1  IDiag  1:
 E= -1060.76705555956     Delta-E=        0.000095143412 Rises=F Damp=F
 DIIS: error= 8.62D-05 at cycle   1 NSaved=   1.
 NSaved= 1 IEnMin= 1 EnMin= -1060.76705555956     IErMin= 1 ErrMin= 8.62D-05
 ErrMax= 8.62D-05  0.00D+00 EMaxC= 1.00D-01 BMatC= 1.54D-06 BMatP= 1.54D-06
 IDIUse=1 WtCom= 1.00D+00 WtEn= 0.00D+00
 Coeff-Com:  0.100D+01
 Coeff:      0.100D+01
 Gap=     0.187 Goal=   None    Shift=    0.000
 RMSDP=7.70D-06 MaxDP=4.97D-04 DE= 9.51D-05 OVMax= 9.21D-04

 Cycle   9  Pass 1  IDiag  1:
 RMSU=  3.67D-05    CP:  1.00D+00
 E= -1060.76705491416     Delta-E=        0.000000645403 Rises=F Damp=F
 DIIS: error= 1.67D-04 at cycle   2 NSaved=   2.
 NSaved= 2 IEnMin= 1 EnMin= -1060.76705555956     IErMin= 1 ErrMin= 8.62D-05
 ErrMax= 1.67D-04  0.00D+00 EMaxC= 1.00D-01 BMatC= 2.70D-06 BMatP= 1.54D-06
 IDIUse=3 WtCom= 4.36D-01 WtEn= 5.64D-01
 Coeff-Com:  0.582D+00 0.418D+00
 Coeff-En:   0.603D+00 0.397D+00
 Coeff:      0.594D+00 0.406D+00
 Gap=     0.187 Goal=   None    Shift=    0.000
 RMSDP=4.45D-06 MaxDP=3.85D-04 DE= 6.45D-07 OVMax= 7.49D-04

 Cycle  10  Pass 1  IDiag  1:
 RMSU=  4.44D-06    CP:  1.00D+00  9.93D-01
 E= -1060.76705692170     Delta-E=       -0.000002007543 Rises=F Damp=F
 DIIS: error= 3.48D-05 at cycle   3 NSaved=   3.
 NSaved= 3 IEnMin= 3 EnMin= -1060.76705692170     IErMin= 3 ErrMin= 3.48D-05
 ErrMax= 3.48D-05  0.00D+00 EMaxC= 1.00D-01 BMatC= 1.16D-07 BMatP= 1.54D-06
 IDIUse=1 WtCom= 1.00D+00 WtEn= 0.00D+00
 Coeff-Com:  0.334D-01 0.168D+00 0.799D+00
 Coeff:      0.334D-01 0.168D+00 0.799D+00
 Gap=     0.187 Goal=   None    Shift=    0.000
 RMSDP=1.31D-06 MaxDP=9.33D-05 DE=-2.01D-06 OVMax= 1.56D-04

 Cycle  11  Pass 1  IDiag  1:
 RMSU=  9.14D-07    CP:  1.00D+00  1.01D+00  8.75D-01
 E= -1060.76705700207     Delta-E=       -0.000000080365 Rises=F Damp=F
 DIIS: error= 6.19D-06 at cycle   4 NSaved=   4.
 NSaved= 4 IEnMin= 4 EnMin= -1060.76705700207     IErMin= 4 ErrMin= 6.19D-06
 ErrMax= 6.19D-06  0.00D+00 EMaxC= 1.00D-01 BMatC= 2.27D-08 BMatP= 1.16D-07
 IDIUse=1 WtCom= 1.00D+00 WtEn= 0.00D+00
 Coeff-Com: -0.232D-01 0.627D-01 0.438D+00 0.523D+00
 Coeff:     -0.232D-01 0.627D-01 0.438D+00 0.523D+00
 Gap=     0.187 Goal=   None    Shift=    0.000
 RMSDP=4.66D-07 MaxDP=2.19D-05 DE=-8.04D-08 OVMax= 3.81D-05

 Cycle  12  Pass 1  IDiag  1:
 RMSU=  3.77D-07    CP:  1.00D+00  1.02D+00  8.84D-01  7.28D-01
 E= -1060.76705702298     Delta-E=       -0.000000020912 Rises=F Damp=F
 DIIS: error= 1.04D-06 at cycle   5 NSaved=   5.
 NSaved= 5 IEnMin= 5 EnMin= -1060.76705702298     IErMin= 5 ErrMin= 1.04D-06
 ErrMax= 1.04D-06  0.00D+00 EMaxC= 1.00D-01 BMatC= 8.31D-10 BMatP= 2.27D-08
 IDIUse=1 WtCom= 1.00D+00 WtEn= 0.00D+00
 Coeff-Com: -0.106D-01 0.615D-02 0.746D-01 0.162D+00 0.768D+00
 Coeff:     -0.106D-01 0.615D-02 0.746D-01 0.162D+00 0.768D+00
 Gap=     0.187 Goal=   None    Shift=    0.000
 RMSDP=1.54D-07 MaxDP=5.03D-06 DE=-2.09D-08 OVMax= 1.02D-05

 Cycle  13  Pass 1  IDiag  1:
 RMSU=  1.26D-07    CP:  1.00D+00  1.02D+00  8.86D-01  8.09D-01  1.13D+00
 E= -1060.76705702408     Delta-E=       -0.000000001105 Rises=F Damp=F
 DIIS: error= 4.34D-07 at cycle   6 NSaved=   6.
 NSaved= 6 IEnMin= 6 EnMin= -1060.76705702408     IErMin= 6 ErrMin= 4.34D-07
 ErrMax= 4.34D-07  0.00D+00 EMaxC= 1.00D-01 BMatC= 2.43D-10 BMatP= 8.31D-10
 IDIUse=1 WtCom= 1.00D+00 WtEn= 0.00D+00
 Coeff-Com:  0.151D-02-0.136D-01-0.814D-01-0.619D-01 0.373D+00 0.782D+00
 Coeff:      0.151D-02-0.136D-01-0.814D-01-0.619D-01 0.373D+00 0.782D+00
 Gap=     0.187 Goal=   None    Shift=    0.000
 RMSDP=8.83D-08 MaxDP=2.79D-06 DE=-1.11D-09 OVMax= 1.11D-05

 Cycle  14  Pass 1  IDiag  1:
 RMSU=  4.62D-08    CP:  1.00D+00  1.02D+00  8.87D-01  8.49D-01  1.30D+00
                    CP:  8.81D-01
 E= -1060.76705702446     Delta-E=       -0.000000000379 Rises=F Damp=F
 DIIS: error= 2.29D-07 at cycle   7 NSaved=   7.
 NSaved= 7 IEnMin= 7 EnMin= -1060.76705702446     IErMin= 7 ErrMin= 2.29D-07
 ErrMax= 2.29D-07  0.00D+00 EMaxC= 1.00D-01 BMatC= 3.12D-11 BMatP= 2.43D-10
 IDIUse=1 WtCom= 1.00D+00 WtEn= 0.00D+00
 Coeff-Com:  0.146D-02-0.732D-02-0.465D-01-0.434D-01 0.117D+00 0.389D+00
 Coeff-Com:  0.590D+00
 Coeff:      0.146D-02-0.732D-02-0.465D-01-0.434D-01 0.117D+00 0.389D+00
 Coeff:      0.590D+00
 Gap=     0.187 Goal=   None    Shift=    0.000
 RMSDP=2.10D-08 MaxDP=8.51D-07 DE=-3.79D-10 OVMax= 1.71D-06

 Cycle  15  Pass 1  IDiag  1:
 RMSU=  1.46D-08    CP:  1.00D+00  1.02D+00  8.87D-01  8.56D-01  1.32D+00
                    CP:  9.62D-01  9.65D-01
 E= -1060.76705702450     Delta-E=       -0.000000000039 Rises=F Damp=F
 DIIS: error= 7.57D-08 at cycle   8 NSaved=   8.
 NSaved= 8 IEnMin= 8 EnMin= -1060.76705702450     IErMin= 8 ErrMin= 7.57D-08
 ErrMax= 7.57D-08  0.00D+00 EMaxC= 1.00D-01 BMatC= 3.66D-12 BMatP= 3.12D-11
 IDIUse=1 WtCom= 1.00D+00 WtEn= 0.00D+00
 Coeff-Com:  0.386D-03-0.853D-03-0.637D-02-0.785D-02-0.157D-01 0.462D-01
 Coeff-Com:  0.272D+00 0.712D+00
 Coeff:      0.386D-03-0.853D-03-0.637D-02-0.785D-02-0.157D-01 0.462D-01
 Coeff:      0.272D+00 0.712D+00
 Gap=     0.187 Goal=   None    Shift=    0.000
 RMSDP=8.21D-09 MaxDP=3.40D-07 DE=-3.91D-11 OVMax= 8.09D-07

 SCF Done:  E(RM062X) =  -1060.76705702     A.U. after   15 cycles
            NFock= 15  Conv=0.82D-08     -V/T= 2.0081
 KE= 1.052263778007D+03 PE=-5.577702990968D+03 EE= 1.915223084348D+03
 Leave Link  502 at Sun Oct 23 01:13:18 2022, MaxMem=  8053063680 cpu:             373.1 elap:              23.4
 (Enter /project/chenjingdan/g16/l801.exe)
 DoSCS=F DFT=T ScalE2(SS,OS)=  1.000000  1.000000
 Range of M.O.s used for correlation:     1   350
 NBasis=   350 NAE=    73 NBE=    73 NFC=     0 NFV=     0
 NROrb=    350 NOA=    73 NOB=    73 NVA=   277 NVB=   277
 Leave Link  801 at Sun Oct 23 01:13:18 2022, MaxMem=  8053063680 cpu:               0.4 elap:               0.1
 (Enter /project/chenjingdan/g16/l1101.exe)
 Using compressed storage, NAtomX=    30.
 Will process     31 centers per pass.
 Leave Link 1101 at Sun Oct 23 01:13:19 2022, MaxMem=  8053063680 cpu:               4.8 elap:               0.4
 (Enter /project/chenjingdan/g16/l1102.exe)
 Symmetrizing basis deriv contribution to polar:
 IMax=3 JMax=2 DiffMx= 0.00D+00
 Leave Link 1102 at Sun Oct 23 01:13:19 2022, MaxMem=  8053063680 cpu:               0.5 elap:               0.1
 (Enter /project/chenjingdan/g16/l1110.exe)
 Forming Gx(P) for the SCF density, NAtomX=    30.
 Integral derivatives from FoFJK, PRISM(SPDF).
 Do as many integral derivatives as possible in FoFJK.
 G2DrvN: MDV=    8053060454.
 G2DrvN: will do    31 centers at a time, making    1 passes.
 Calling FoFCou, ICntrl=  3107 FMM=F I1Cent=   0 AccDes= 0.00D+00.
 FoFJK:  IHMeth= 1 ICntrl=    3107 DoSepK=F KAlg= 0 I1Cent=           0 FoldK=F
 IRaf=         0 NMat=       1 IRICut=       1 DoRegI=T DoRafI=F ISym2E= 0 IDoP0=0 IntGTp=1.
 FoFCou: FMM=F IPFlag=           0 FMFlag=      100000 FMFlg1=           0
         NFxFlg=           0 DoJE=F BraDBF=F KetDBF=F FulRan=T
         wScrn=  0.000000 ICntrl=      3107 IOpCl=  0 I1Cent=           0 NGrid=           0
         NMat0=    1 NMatS0=      1 NMatT0=    0 NMatD0=    1 NMtDS0=    0 NMtDT0=    0
 Symmetry not used in FoFCou.
 End of G2Drv F.D. properties file   721 does not exist.
 End of G2Drv F.D. properties file   722 does not exist.
 End of G2Drv F.D. properties file   788 does not exist.
 Leave Link 1110 at Sun Oct 23 01:14:28 2022, MaxMem=  8053063680 cpu:            1074.5 elap:              67.5
 (Enter /project/chenjingdan/g16/l1002.exe)
 Minotr:  Closed shell wavefunction.
          IDoAtm=111111111111111111111111111111
          Direct CPHF calculation.
          Differentiating once with respect to nuclear coordinates.
          Requested convergence is 1.0D-08 RMS, and 1.0D-07 maximum.
          Secondary convergence is 1.0D-12 RMS, and 1.0D-12 maximum.
          NewPWx=T KeepS1=F KeepF1=F KeepIn=T MapXYZ=F SortEE=F KeepMc=T.
         9046 words used for storage of precomputed grid.
 Keep R1 ints in memory in canonical form, NReq=1908182471.
 FoFCou: FMM=F IPFlag=           0 FMFlag=           0 FMFlg1=           0
         NFxFlg=           0 DoJE=F BraDBF=F KetDBF=F FulRan=T
         wScrn=  0.000000 ICntrl=       600 IOpCl=  0 I1Cent=           0 NGrid=           0
         NMat0=    1 NMatS0=  61425 NMatT0=    0 NMatD0=    1 NMtDS0=    0 NMtDT0=    0
 Symmetry not used in FoFCou.
 Two-electron integral symmetry not used.
          MDV=    8053063680 using IRadAn=       1.
          Solving linear equations simultaneously, MaxMat=       0.
          There are    93 degrees of freedom in the 1st order CPHF.  IDoFFX=6 NUNeed=     0.
     87 vectors produced by pass  0 Test12= 2.17D-14 1.08D-09 XBig12= 1.66D-01 1.17D-01.
 AX will form    87 AO Fock derivatives at one time.
     87 vectors produced by pass  1 Test12= 2.17D-14 1.08D-09 XBig12= 1.67D-02 4.07D-02.
     87 vectors produced by pass  2 Test12= 2.17D-14 1.08D-09 XBig12= 6.66D-04 4.78D-03.
     87 vectors produced by pass  3 Test12= 2.17D-14 1.08D-09 XBig12= 5.06D-06 3.64D-04.
     87 vectors produced by pass  4 Test12= 2.17D-14 1.08D-09 XBig12= 3.46D-08 2.72D-05.
     87 vectors produced by pass  5 Test12= 2.17D-14 1.08D-09 XBig12= 1.31D-10 1.53D-06.
     75 vectors produced by pass  6 Test12= 2.17D-14 1.08D-09 XBig12= 3.31D-13 6.94D-08.
     20 vectors produced by pass  7 Test12= 2.17D-14 1.08D-09 XBig12= 8.99D-16 2.38D-09.
 InvSVY:  IOpt=1 It=  1 EMax= 3.33D-16
 Solved reduced A of dimension   617 with    93 vectors.
 End of Minotr F.D. properties file   721 does not exist.
 End of Minotr F.D. properties file   722 does not exist.
 End of Minotr F.D. properties file   788 does not exist.
 Leave Link 1002 at Sun Oct 23 01:15:58 2022, MaxMem=  8053063680 cpu:            1444.9 elap:              90.4
 (Enter /project/chenjingdan/g16/l601.exe)
 Copying SCF densities to generalized density rwf, IOpCl= 0 IROHF=0.

 **********************************************************************

            Population analysis using the SCF Density.

 **********************************************************************

 Alpha  occ. eigenvalues --  -19.72886 -19.71223 -19.70119 -19.70092 -19.66110
 Alpha  occ. eigenvalues --  -19.58618 -19.58453 -15.03702 -14.87508 -10.74187
 Alpha  occ. eigenvalues --  -10.71365 -10.65214 -10.64674 -10.63374 -10.62411
 Alpha  occ. eigenvalues --  -10.61924 -10.61844 -10.61605 -10.61522 -10.55981
 Alpha  occ. eigenvalues --   -1.39201  -1.27609  -1.26109  -1.20640  -1.16389
 Alpha  occ. eigenvalues --   -1.15657  -1.12246  -1.07517  -1.03796  -0.95937
 Alpha  occ. eigenvalues --   -0.91520  -0.90961  -0.85019  -0.79202  -0.77895
 Alpha  occ. eigenvalues --   -0.76275  -0.72373  -0.71677  -0.70797  -0.67891
 Alpha  occ. eigenvalues --   -0.64882  -0.64756  -0.62592  -0.62011  -0.60377
 Alpha  occ. eigenvalues --   -0.59227  -0.58496  -0.56953  -0.56606  -0.55553
 Alpha  occ. eigenvalues --   -0.54789  -0.53165  -0.52928  -0.51825  -0.49934
 Alpha  occ. eigenvalues --   -0.49590  -0.48798  -0.47384  -0.46924  -0.46758
 Alpha  occ. eigenvalues --   -0.46532  -0.45724  -0.42971  -0.41684  -0.40861
 Alpha  occ. eigenvalues --   -0.40070  -0.39869  -0.38252  -0.37378  -0.36753
 Alpha  occ. eigenvalues --   -0.31535  -0.31325  -0.27633
 Alpha virt. eigenvalues --   -0.08886  -0.03113  -0.02091   0.02435   0.04393
 Alpha virt. eigenvalues --    0.07560   0.10181   0.10803   0.14153   0.15343
 Alpha virt. eigenvalues --    0.15917   0.16943   0.17009   0.18000   0.18591
 Alpha virt. eigenvalues --    0.19003   0.20788   0.21808   0.22608   0.24470
 Alpha virt. eigenvalues --    0.24664   0.27575   0.28864   0.28971   0.30114
 Alpha virt. eigenvalues --    0.31074   0.32051   0.32473   0.36193   0.36759
 Alpha virt. eigenvalues --    0.39133   0.41272   0.41931   0.45348   0.46072
 Alpha virt. eigenvalues --    0.50345   0.50732   0.51341   0.52634   0.54016
 Alpha virt. eigenvalues --    0.54459   0.55436   0.55682   0.56811   0.57809
 Alpha virt. eigenvalues --    0.58882   0.59225   0.60016   0.61225   0.61521
 Alpha virt. eigenvalues --    0.62859   0.65205   0.65580   0.66560   0.68086
 Alpha virt. eigenvalues --    0.69306   0.70243   0.71375   0.71987   0.72687
 Alpha virt. eigenvalues --    0.73445   0.73834   0.75067   0.76391   0.76825
 Alpha virt. eigenvalues --    0.78678   0.80029   0.80472   0.81171   0.82063
 Alpha virt. eigenvalues --    0.83440   0.83942   0.84471   0.85710   0.86143
 Alpha virt. eigenvalues --    0.87951   0.88163   0.90269   0.91005   0.92208
 Alpha virt. eigenvalues --    0.93374   0.94644   0.94975   0.96778   0.97217
 Alpha virt. eigenvalues --    0.97838   0.98627   0.99794   1.00347   1.00810
 Alpha virt. eigenvalues --    1.01449   1.03045   1.04626   1.05382   1.06131
 Alpha virt. eigenvalues --    1.08129   1.09847   1.10723   1.12359   1.13040
 Alpha virt. eigenvalues --    1.13978   1.17202   1.18122   1.18770   1.20718
 Alpha virt. eigenvalues --    1.22587   1.22958   1.25226   1.26342   1.27075
 Alpha virt. eigenvalues --    1.28488   1.28934   1.29902   1.34470   1.35232
 Alpha virt. eigenvalues --    1.36463   1.37537   1.38420   1.38579   1.39669
 Alpha virt. eigenvalues --    1.40316   1.41352   1.42768   1.44057   1.44817
 Alpha virt. eigenvalues --    1.45854   1.47192   1.49862   1.52429   1.53613
 Alpha virt. eigenvalues --    1.54028   1.55895   1.59649   1.61202   1.64512
 Alpha virt. eigenvalues --    1.66047   1.68767   1.70205   1.71955   1.72091
 Alpha virt. eigenvalues --    1.73178   1.74703   1.75698   1.76708   1.78864
 Alpha virt. eigenvalues --    1.78999   1.80181   1.81528   1.83339   1.83641
 Alpha virt. eigenvalues --    1.83896   1.86486   1.86961   1.87662   1.88965
 Alpha virt. eigenvalues --    1.89620   1.91711   1.92462   1.92881   1.93999
 Alpha virt. eigenvalues --    1.94353   1.95236   1.95947   1.96584   1.98125
 Alpha virt. eigenvalues --    1.98936   1.99868   2.01625   2.03511   2.04152
 Alpha virt. eigenvalues --    2.05501   2.07321   2.08414   2.09411   2.10399
 Alpha virt. eigenvalues --    2.12325   2.12651   2.13766   2.14193   2.16517
 Alpha virt. eigenvalues --    2.16680   2.18586   2.19650   2.22057   2.23299
 Alpha virt. eigenvalues --    2.25757   2.26491   2.26905   2.29901   2.31990
 Alpha virt. eigenvalues --    2.33781   2.34418   2.37483   2.37690   2.38316
 Alpha virt. eigenvalues --    2.39127   2.40554   2.41636   2.42591   2.44294
 Alpha virt. eigenvalues --    2.45585   2.47373   2.48743   2.49660   2.50505
 Alpha virt. eigenvalues --    2.52921   2.53759   2.56167   2.57149   2.57354
 Alpha virt. eigenvalues --    2.58301   2.60373   2.61513   2.63220   2.65783
 Alpha virt. eigenvalues --    2.67771   2.69689   2.70293   2.72766   2.73414
 Alpha virt. eigenvalues --    2.73760   2.75355   2.77685   2.79497   2.81747
 Alpha virt. eigenvalues --    2.83551   2.85355   2.86828   2.88403   2.89043
 Alpha virt. eigenvalues --    2.90342   2.92547   2.93232   2.97540   2.98667
 Alpha virt. eigenvalues --    2.99480   3.00800   3.01058   3.05152   3.07785
 Alpha virt. eigenvalues --    3.08632   3.14784   3.16668   3.18052   3.19444
 Alpha virt. eigenvalues --    3.20236   3.22415   3.24976   3.30262   3.34441
 Alpha virt. eigenvalues --    3.40055   3.43535   3.44633   3.48054   3.51954
 Alpha virt. eigenvalues --    3.53715   3.74786   3.77904   3.92004   4.01379
 Alpha virt. eigenvalues --    4.02564   4.03243   4.08222   4.11681   4.12902
 Alpha virt. eigenvalues --    4.13060   4.26141   4.29950   4.35531   4.40080
 Alpha virt. eigenvalues --    4.44416   4.48898   4.49673   4.59495   4.70629
 Alpha virt. eigenvalues --    4.78900   4.85205
          Condensed to atoms (all electrons):
               1          2          3          4          5          6
     1  N    6.978788  -0.008857   0.001729  -0.058290  -0.071701  -0.003575
     2  O   -0.008857   8.276976   0.000148   0.003424  -0.018920  -0.003380
     3  O    0.001729   0.000148   8.086242  -0.001243  -0.000028  -0.086526
     4  C   -0.058290   0.003424  -0.001243   5.003044  -0.000018   0.002899
     5  O   -0.071701  -0.018920  -0.000028  -0.000018   8.036600  -0.035837
     6  O   -0.003575  -0.003380  -0.086526   0.002899  -0.035837   8.201835
     7  O    0.000573  -0.065397  -0.000276   0.004106  -0.000013   0.000133
     8  C   -0.007815  -0.000006   0.000000  -0.000089   0.001220   0.000008
     9  C   -0.080567  -0.000327   0.000000  -0.000181  -0.082158   0.000228
    10  C    0.003411   0.000078   0.000000   0.000002   0.000768   0.000004
    11  C   -0.039378   0.480293   0.002392  -0.025261  -0.001053  -0.001844
    12  C    0.165901  -0.132552  -0.103627   0.321958   0.005843  -0.081249
    13  C    0.000390   0.000000   0.000000  -0.000001  -0.000080  -0.000000
    14  C    0.000002   0.000000  -0.000000   0.000000   0.000000   0.000000
    15  C   -0.044416   0.002922   0.313706  -0.039386   0.001774   0.488472
    16  C    0.347917   0.027237   0.000108   0.006257   0.381396   0.014655
    17  C   -0.000169   0.000000   0.000000  -0.000000   0.000439   0.000000
    18  H    0.346937   0.000140  -0.000049  -0.003574   0.002677  -0.000070
    19  H   -0.005821   0.024044   0.000439   0.000213   0.254735   0.052195
    20  H   -0.000173   0.000009   0.288164  -0.000305   0.000011   0.005313
    21  H    0.004040   0.000147   0.003856   0.387305   0.000001   0.000051
    22  H   -0.005994   0.000104   0.000229   0.378907   0.000001  -0.000075
    23  H   -0.001485  -0.000072   0.000680   0.375921   0.000001   0.000050
    24  H    0.001992   0.000000   0.000000   0.000071  -0.000045   0.000003
    25  H    0.000248   0.000059   0.000000   0.000000   0.005056   0.000004
    26  H    0.000002   0.000000  -0.000000  -0.000000   0.000000   0.000000
    27  H    0.000001  -0.000000   0.000000   0.000000  -0.000002   0.000000
    28  N   -0.000000  -0.000000  -0.000000  -0.000000  -0.000000   0.000000
    29  O    0.000000   0.000000   0.000000  -0.000000   0.000000  -0.000000
    30  O   -0.000000  -0.000000   0.000000  -0.000000  -0.000000   0.000000
               7          8          9         10         11         12
     1  N    0.000573  -0.007815  -0.080567   0.003411  -0.039378   0.165901
     2  O   -0.065397  -0.000006  -0.000327   0.000078   0.480293  -0.132552
     3  O   -0.000276   0.000000   0.000000   0.000000   0.002392  -0.103627
     4  C    0.004106  -0.000089  -0.000181   0.000002  -0.025261   0.321958
     5  O   -0.000013   0.001220  -0.082158   0.000768  -0.001053   0.005843
     6  O    0.000133   0.000008   0.000228   0.000004  -0.001844  -0.081249
     7  O    8.145932  -0.000000   0.000002  -0.000000   0.543941  -0.121832
     8  C   -0.000000   4.934504   0.533470  -0.034825   0.000010   0.000345
     9  C    0.000002   0.533470   4.913773   0.533363  -0.000155   0.003047
    10  C   -0.000000  -0.034825   0.533363   4.862129   0.000030  -0.000052
    11  C    0.543941   0.000010  -0.000155   0.000030   4.222865   0.179220
    12  C   -0.121832   0.000345   0.003047  -0.000052   0.179220   5.664161
    13  C   -0.000000   0.487031  -0.041317  -0.039531   0.000000  -0.000003
    14  C    0.000000  -0.027074  -0.030830  -0.027442  -0.000000  -0.000000
    15  C   -0.001514  -0.000044   0.000193  -0.000005  -0.029967   0.357419
    16  C    0.000033  -0.051670   0.357509  -0.033178  -0.000297  -0.037968
    17  C   -0.000000  -0.043738  -0.039042   0.489868   0.000000   0.000002
    18  H   -0.000024   0.007623  -0.004214   0.000114   0.000453  -0.029118
    19  H    0.000143  -0.000104   0.005168  -0.000059   0.000007  -0.000998
    20  H    0.000009  -0.000000  -0.000000  -0.000000  -0.000143   0.010129
    21  H    0.007295   0.000000   0.000002  -0.000000  -0.001199  -0.022055
    22  H    0.004105  -0.000043  -0.000005  -0.000001  -0.003306  -0.029951
    23  H    0.000487  -0.000004  -0.000004   0.000000   0.002281  -0.037129
    24  H   -0.000000   0.371343  -0.045418   0.003700   0.000005  -0.000081
    25  H   -0.000000   0.004015  -0.036515   0.380786   0.000004   0.000006
    26  H    0.000000  -0.027379   0.002789   0.000286  -0.000000   0.000000
    27  H   -0.000000   0.000260   0.002838  -0.026638   0.000000  -0.000000
    28  N    0.000000   0.004042   0.000099   0.003597  -0.000000  -0.000000
    29  O   -0.000000  -0.000057  -0.000015   0.001061   0.000000   0.000000
    30  O   -0.000000   0.001082  -0.000012  -0.000045   0.000000   0.000000
              13         14         15         16         17         18
     1  N    0.000390   0.000002  -0.044416   0.347917  -0.000169   0.346937
     2  O    0.000000   0.000000   0.002922   0.027237   0.000000   0.000140
     3  O    0.000000  -0.000000   0.313706   0.000108   0.000000  -0.000049
     4  C   -0.000001   0.000000  -0.039386   0.006257  -0.000000  -0.003574
     5  O   -0.000080   0.000000   0.001774   0.381396   0.000439   0.002677
     6  O   -0.000000   0.000000   0.488472   0.014655   0.000000  -0.000070
     7  O   -0.000000   0.000000  -0.001514   0.000033  -0.000000  -0.000024
     8  C    0.487031  -0.027074  -0.000044  -0.051670  -0.043738   0.007623
     9  C   -0.041317  -0.030830   0.000193   0.357509  -0.039042  -0.004214
    10  C   -0.039531  -0.027442  -0.000005  -0.033178   0.489868   0.000114
    11  C    0.000000  -0.000000  -0.029967  -0.000297   0.000000   0.000453
    12  C   -0.000003  -0.000000   0.357419  -0.037968   0.000002  -0.029118
    13  C    4.925731   0.526996  -0.000000   0.005305  -0.073695  -0.000160
    14  C    0.526996   4.898192   0.000000   0.000338   0.522747  -0.000013
    15  C   -0.000000   0.000000   4.297521  -0.005991  -0.000000   0.003768
    16  C    0.005305   0.000338  -0.005991   4.417829   0.005076  -0.032441
    17  C   -0.073695   0.522747  -0.000000   0.005076   4.934925  -0.000035
    18  H   -0.000160  -0.000013   0.003768  -0.032441  -0.000035   0.377803
    19  H    0.000002   0.000000  -0.001853  -0.014505   0.000006  -0.000268
    20  H   -0.000000   0.000000  -0.016438  -0.000023  -0.000000   0.000006
    21  H    0.000000  -0.000000  -0.006637  -0.000083   0.000000  -0.000078
    22  H   -0.000001   0.000000   0.004614  -0.000084  -0.000000   0.006096
    23  H    0.000000   0.000000  -0.004724  -0.000080  -0.000000   0.000393
    24  H   -0.019425   0.002451  -0.000021  -0.005340   0.000617   0.002851
    25  H    0.000503   0.002648  -0.000001  -0.007104  -0.026953  -0.000012
    26  H    0.366994  -0.022758   0.000000  -0.000120   0.004438   0.000007
    27  H    0.004496  -0.024857   0.000000  -0.000115   0.368592   0.000000
    28  N   -0.044023   0.185826   0.000000  -0.000000  -0.043270  -0.000000
    29  O    0.006948  -0.104495  -0.000000   0.000000   0.001723   0.000000
    30  O    0.001923  -0.105627  -0.000000   0.000000   0.006809   0.000000
              19         20         21         22         23         24
     1  N   -0.005821  -0.000173   0.004040  -0.005994  -0.001485   0.001992
     2  O    0.024044   0.000009   0.000147   0.000104  -0.000072   0.000000
     3  O    0.000439   0.288164   0.003856   0.000229   0.000680   0.000000
     4  C    0.000213  -0.000305   0.387305   0.378907   0.375921   0.000071
     5  O    0.254735   0.000011   0.000001   0.000001   0.000001  -0.000045
     6  O    0.052195   0.005313   0.000051  -0.000075   0.000050   0.000003
     7  O    0.000143   0.000009   0.007295   0.004105   0.000487  -0.000000
     8  C   -0.000104  -0.000000   0.000000  -0.000043  -0.000004   0.371343
     9  C    0.005168  -0.000000   0.000002  -0.000005  -0.000004  -0.045418
    10  C   -0.000059  -0.000000  -0.000000  -0.000001   0.000000   0.003700
    11  C    0.000007  -0.000143  -0.001199  -0.003306   0.002281   0.000005
    12  C   -0.000998   0.010129  -0.022055  -0.029951  -0.037129  -0.000081
    13  C    0.000002  -0.000000   0.000000  -0.000001   0.000000  -0.019425
    14  C    0.000000   0.000000  -0.000000   0.000000   0.000000   0.002451
    15  C   -0.001853  -0.016438  -0.006637   0.004614  -0.004724  -0.000021
    16  C   -0.014505  -0.000023  -0.000083  -0.000084  -0.000080  -0.005340
    17  C    0.000006  -0.000000   0.000000  -0.000000  -0.000000   0.000617
    18  H   -0.000268   0.000006  -0.000078   0.006096   0.000393   0.002851
    19  H    0.268034  -0.000036  -0.000006  -0.000000  -0.000016  -0.000003
    20  H   -0.000036   0.352389   0.000030   0.000010  -0.000111  -0.000000
    21  H   -0.000006   0.000030   0.472800  -0.017871  -0.022205  -0.000001
    22  H   -0.000000   0.000010  -0.017871   0.562387  -0.033858  -0.000031
    23  H   -0.000016  -0.000111  -0.022205  -0.033858   0.600023   0.000077
    24  H   -0.000003  -0.000000  -0.000001  -0.000031   0.000077   0.536414
    25  H   -0.000071  -0.000000  -0.000000  -0.000000   0.000000  -0.000119
    26  H   -0.000000   0.000000  -0.000000   0.000000  -0.000000  -0.003588
    27  H   -0.000000  -0.000000  -0.000000  -0.000000   0.000000   0.000013
    28  N    0.000000   0.000000   0.000000   0.000000  -0.000000  -0.000077
    29  O    0.000000  -0.000000   0.000000  -0.000000   0.000000   0.000001
    30  O    0.000000  -0.000000  -0.000000  -0.000000   0.000000   0.000002
              25         26         27         28         29         30
     1  N    0.000248   0.000002   0.000001  -0.000000   0.000000  -0.000000
     2  O    0.000059   0.000000  -0.000000  -0.000000   0.000000  -0.000000
     3  O    0.000000  -0.000000   0.000000  -0.000000   0.000000   0.000000
     4  C    0.000000  -0.000000   0.000000  -0.000000  -0.000000  -0.000000
     5  O    0.005056   0.000000  -0.000002  -0.000000   0.000000  -0.000000
     6  O    0.000004   0.000000   0.000000   0.000000  -0.000000   0.000000
     7  O   -0.000000   0.000000  -0.000000   0.000000  -0.000000  -0.000000
     8  C    0.004015  -0.027379   0.000260   0.004042  -0.000057   0.001082
     9  C   -0.036515   0.002789   0.002838   0.000099  -0.000015  -0.000012
    10  C    0.380786   0.000286  -0.026638   0.003597   0.001061  -0.000045
    11  C    0.000004  -0.000000   0.000000  -0.000000   0.000000   0.000000
    12  C    0.000006   0.000000  -0.000000  -0.000000   0.000000   0.000000
    13  C    0.000503   0.366994   0.004496  -0.044023   0.006948   0.001923
    14  C    0.002648  -0.022758  -0.024857   0.185826  -0.104495  -0.105627
    15  C   -0.000001   0.000000   0.000000   0.000000  -0.000000  -0.000000
    16  C   -0.007104  -0.000120  -0.000115  -0.000000   0.000000   0.000000
    17  C   -0.026953   0.004438   0.368592  -0.043270   0.001723   0.006809
    18  H   -0.000012   0.000007   0.000000  -0.000000   0.000000   0.000000
    19  H   -0.000071  -0.000000  -0.000000   0.000000   0.000000   0.000000
    20  H   -0.000000   0.000000  -0.000000   0.000000  -0.000000  -0.000000
    21  H   -0.000000  -0.000000  -0.000000   0.000000   0.000000  -0.000000
    22  H   -0.000000   0.000000  -0.000000   0.000000  -0.000000  -0.000000
    23  H    0.000000  -0.000000   0.000000  -0.000000   0.000000   0.000000
    24  H   -0.000119  -0.003588   0.000013  -0.000077   0.000001   0.000002
    25  H    0.487172   0.000011  -0.003235  -0.000066   0.000002   0.000001
    26  H    0.000011   0.480735  -0.000109  -0.010712   0.000148   0.014166
    27  H   -0.003235  -0.000109   0.477336  -0.010530   0.013490   0.000137
    28  N   -0.000066  -0.010712  -0.010530   5.881324   0.303574   0.303557
    29  O    0.000002   0.000148   0.013490   0.303574   8.277521  -0.108527
    30  O    0.000001   0.014166   0.000137   0.303557  -0.108527   8.282388
 Mulliken charges:
               1
     1  N   -0.523689
     2  O   -0.586067
     3  O   -0.505945
     4  C   -0.355760
     5  O   -0.480669
     6  O   -0.553293
     7  O   -0.517701
     8  C   -0.152105
     9  C    0.008280
    10  C   -0.117422
    11  C    0.671100
    12  C   -0.111417
    13  C   -0.108085
    14  C    0.203895
    15  C    0.680608
    16  C    0.625339
    17  C   -0.108338
    18  H    0.321188
    19  H    0.418754
    20  H    0.361159
    21  H    0.194610
    22  H    0.134769
    23  H    0.119777
    24  H    0.154612
    25  H    0.193560
    26  H    0.195089
    27  H    0.198324
    28  N    0.426658
    29  O   -0.391375
    30  O   -0.395854
 Sum of Mulliken charges =  -0.00000
 Mulliken charges with hydrogens summed into heavy atoms:
               1
     1  N   -0.202501
     2  O   -0.586067
     3  O   -0.144786
     4  C    0.093395
     5  O   -0.061916
     6  O   -0.553293
     7  O   -0.517701
     8  C    0.002506
     9  C    0.008280
    10  C    0.076138
    11  C    0.671100
    12  C   -0.111417
    13  C    0.087004
    14  C    0.203895
    15  C    0.680608
    16  C    0.625339
    17  C    0.089986
    28  N    0.426658
    29  O   -0.391375
    30  O   -0.395854
 APT charges:
               1
     1  N   -0.193940
     2  O   -0.683360
     3  O   -0.712707
     4  C   -1.363492
     5  O   -0.401028
     6  O   -0.384654
     7  O    0.457191
     8  C   -0.574169
     9  C   -0.411136
    10  C   -0.516543
    11  C   -0.372317
    12  C   -0.297061
    13  C   -0.501264
    14  C    0.515837
    15  C    0.106206
    16  C    0.008446
    17  C   -0.490990
    18  H    0.431327
    19  H    0.673525
    20  H    1.121240
    21  H    0.841597
    22  H    0.244533
    23  H    0.376608
    24  H    0.349042
    25  H    0.430395
    26  H    0.750018
    27  H    0.823311
    28  N   -0.553441
    29  O    0.196849
    30  O    0.129979
 Sum of APT charges =  -0.00000
 APT charges with hydrogens summed into heavy atoms:
               1
     1  N    0.237387
     2  O   -0.683360
     3  O    0.408533
     4  C    0.099245
     5  O    0.272497
     6  O   -0.384654
     7  O    0.457191
     8  C   -0.225127
     9  C   -0.411136
    10  C   -0.086149
    11  C   -0.372317
    12  C   -0.297061
    13  C    0.248754
    14  C    0.515837
    15  C    0.106206
    16  C    0.008446
    17  C    0.332321
    28  N   -0.553441
    29  O    0.196849
    30  O    0.129979
 Electronic spatial extent (au):  <R**2>=           7443.9893
 Charge=             -0.0000 electrons
 Dipole moment (field-independent basis, Debye):
    X=             -1.4844    Y=              3.3327    Z=              4.8562  Tot=              6.0739
 Quadrupole moment (field-independent basis, Debye-Ang):
   XX=           -143.5430   YY=           -108.8597   ZZ=           -122.6372
   XY=              9.4301   XZ=             19.2232   YZ=             -1.2672
 Traceless Quadrupole moment (field-independent basis, Debye-Ang):
   XX=            -18.5297   YY=             16.1536   ZZ=              2.3761
   XY=              9.4301   XZ=             19.2232   YZ=             -1.2672
 Octapole moment (field-independent basis, Debye-Ang**2):
  XXX=            226.5292  YYY=             -0.6887  ZZZ=             26.5885  XYY=             -8.4660
  XXY=            -13.2756  XXZ=            105.1394  XZZ=            -26.5263  YZZ=              6.2580
  YYZ=              2.8783  XYZ=             -8.6439
 Hexadecapole moment (field-independent basis, Debye-Ang**3):
 XXXX=          -8686.0211 YYYY=           -837.4846 ZZZZ=           -689.3721 XXXY=             38.9349
 XXXZ=            395.5822 YYYX=             17.3464 YYYZ=             -5.3503 ZZZX=            144.6932
 ZZZY=              2.1517 XXYY=          -1469.3078 XXZZ=          -1422.5106 YYZZ=           -261.9606
 XXYZ=            -28.1865 YYXZ=              9.8910 ZZXY=              2.4483
 N-N= 1.549449071589D+03 E-N=-5.577702987990D+03  KE= 1.052263778007D+03
  Exact polarizability:       0.000       0.000       0.000       0.000       0.000       0.000
 Approx polarizability:     235.970      17.510     222.538      -2.407       3.856     129.777
 No NMR shielding tensors so no spin-rotation constants.
 Leave Link  601 at Sun Oct 23 01:15:59 2022, MaxMem=  8053063680 cpu:               2.7 elap:               0.2
 (Enter /project/chenjingdan/g16/l701.exe)
 ... and contract with generalized density number  0.
 Compute integral second derivatives.
 Leave Link  701 at Sun Oct 23 01:16:01 2022, MaxMem=  8053063680 cpu:               3.7 elap:               0.6
 (Enter /project/chenjingdan/g16/l702.exe)
 L702 exits ... SP integral derivatives will be done elsewhere.
 Leave Link  702 at Sun Oct 23 01:16:01 2022, MaxMem=  8053063680 cpu:               0.3 elap:               0.1
 (Enter /project/chenjingdan/g16/l703.exe)
 Integral derivatives from FoFJK, PRISM(SPDF).
 Compute integral second derivatives, UseDBF=F ICtDFT=           0.
 Calling FoFJK, ICntrl=    100127 FMM=F ISym2X=0 I1Cent= 0 IOpClX= 0 NMat=1 NMatS=1 NMatT=0.
 FoFJK:  IHMeth= 1 ICntrl=  100127 DoSepK=F KAlg= 0 I1Cent=           0 FoldK=F
 IRaf=         0 NMat=       1 IRICut=       1 DoRegI=T DoRafI=F ISym2E= 0 IDoP0=0 IntGTp=1.
 FoFCou: FMM=F IPFlag=           0 FMFlag=      100000 FMFlg1=         800
         NFxFlg=           0 DoJE=F BraDBF=F KetDBF=F FulRan=T
         wScrn=  0.000000 ICntrl=    100127 IOpCl=  0 I1Cent=           0 NGrid=           0
         NMat0=    1 NMatS0=      1 NMatT0=    0 NMatD0=    1 NMtDS0=    0 NMtDT0=    0
 Symmetry not used in FoFCou.
 Leave Link  703 at Sun Oct 23 01:17:38 2022, MaxMem=  8053063680 cpu:            1540.5 elap:              96.3
 (Enter /project/chenjingdan/g16/l716.exe)
 Dipole        =-5.84019834D-01 1.31116594D+00 1.91057972D+00
 Polarizability= 0.00000000D+00 0.00000000D+00 0.00000000D+00
                 0.00000000D+00 0.00000000D+00 0.00000000D+00
 -------------------------------------------------------------------
 Center     Atomic                   Forces (Hartrees/Bohr)
 Number     Number              X              Y              Z
 -------------------------------------------------------------------
      1        7           0.000005889    0.000000434    0.000018618
      2        8           0.000002237   -0.000012115   -0.000000451
      3        8          -0.000002563    0.000001660    0.000002641
      4        6          -0.000001027    0.000001284    0.000001733
      5        8          -0.000004990   -0.000001074    0.000018077
      6        8           0.000000122    0.000002396    0.000003368
      7        8           0.000006141   -0.000007885   -0.000007765
      8        6           0.000000426    0.000000418   -0.000003439
      9        6          -0.000000942    0.000000117   -0.000001715
     10        6           0.000000365   -0.000000729    0.000003234
     11        6          -0.000004522    0.000009792   -0.000001415
     12        6          -0.000005046   -0.000000265   -0.000000129
     13        6           0.000001114    0.000001325   -0.000001973
     14        6           0.000001328    0.000000581   -0.000000367
     15        6           0.000001455   -0.000003664    0.000003781
     16        6          -0.000004504   -0.000002633   -0.000015436
     17        6           0.000000932    0.000000037   -0.000000187
     18        1           0.000000973   -0.000000869   -0.000001651
     19        1           0.000004078    0.000011528   -0.000008934
     20        1           0.000000208   -0.000000377    0.000001013
     21        1           0.000000842   -0.000001884   -0.000000853
     22        1           0.000001724   -0.000002720    0.000000555
     23        1           0.000000177   -0.000000714   -0.000000321
     24        1          -0.000000360    0.000000881   -0.000001020
     25        1          -0.000000693    0.000000802    0.000000695
     26        1           0.000000615    0.000000317   -0.000002838
     27        1           0.000000070    0.000000549    0.000000624
     28        7          -0.000000091    0.000002201   -0.000001428
     29        8          -0.000002242    0.000001749   -0.000001083
     30        8          -0.000001716   -0.000001142   -0.000003332
 -------------------------------------------------------------------
 Cartesian Forces:  Max     0.000018618 RMS     0.000004543
 Z-matrix is all fixed cartesians, so copy forces.
 Leave Link  716 at Sun Oct 23 01:17:39 2022, MaxMem=  8053063680 cpu:               0.5 elap:               0.1
 (Enter /project/chenjingdan/g16/l123.exe)
 IRC-IRC-IRC-IRC-IRC-IRC-IRC-IRC-IRC-IRC-IRC-IRC-IRC-IRC-IRC-IRC-IRC-IRC
          ******** Start new reaction path calculation ********
 Current Structure is TS -> form Hessian eigenvectors.
                            Diagonalizing Hessian.
 Supplied step size of   0.1000 bohr.
    Integration on MW PES will use step size of   0.1527 sqrt(amu)*bohr.
 Point Number:   0          Path Number:   1
 Calculating another point on the path.
 Point Number  1 in FORWARD path direction.
 Using LQA Reaction Path Following.
 IRC-IRC-IRC-IRC-IRC-IRC-IRC-IRC-IRC-IRC-IRC-IRC-IRC-IRC-IRC-IRC-IRC-IRC
 Leave Link  123 at Sun Oct 23 01:17:39 2022, MaxMem=  8053063680 cpu:               2.4 elap:               0.2
 (Enter /project/chenjingdan/g16/l202.exe)
                          Input orientation:                          
 ---------------------------------------------------------------------
 Center     Atomic      Atomic             Coordinates (Angstroms)
 Number     Number       Type             X           Y           Z
 ---------------------------------------------------------------------
      1          7           0        1.294045    0.578445    0.088204
      2          8           0        2.570316   -1.494723   -1.207895
      3          8           0        4.731343    0.631331    1.132826
      4          6           0        3.108828    2.095086   -0.491386
      5          8           0        0.831835   -1.571256    0.836516
      6          8           0        3.168341   -0.867629    1.672305
      7          8           0        3.766376    0.125632   -2.294039
      8          6           0       -1.555021    1.057183    0.489504
      9          6           0       -0.975134   -0.198727    0.287134
     10          6           0       -1.766013   -1.305343   -0.034666
     11          6           0        3.095912   -0.404601   -1.432948
     12          6           0        2.745527    0.672694   -0.122090
     13          6           0       -2.926821    1.217486    0.350892
     14          6           0       -3.685677    0.106416    0.012540
     15          6           0        3.523573    0.083340    0.995400
     16          6           0        0.488930   -0.408711    0.406627
     17          6           0       -3.138129   -1.153393   -0.182007
     18          1           0        0.808115    1.374819   -0.307741
     19          1           0        1.823914   -1.652785    0.851421
     20          1           0        5.211826    0.094036    1.781930
     21          1           0        4.158778    2.109118   -0.776427
     22          1           0        2.543740    2.396322   -1.377894
     23          1           0        2.940161    2.803144    0.326004
     24          1           0       -0.950974    1.905679    0.796463
     25          1           0       -1.296368   -2.271478   -0.177591
     26          1           0       -3.414018    2.170987    0.509990
     27          1           0       -3.782415   -1.983622   -0.442253
     28          7           0       -5.145710    0.272903   -0.135517
     29          8           0       -5.790804   -0.714025   -0.427732
     30          8           0       -5.598877    1.386173    0.045527
 ---------------------------------------------------------------------
                    Distance matrix (angstroms):
                    1          2          3          4          5
     1  N    0.000000
     2  O    2.758036   0.000000
     3  O    3.592916   3.830028   0.000000
     4  C    2.435070   3.700015   2.722718   0.000000
     5  O    2.322676   2.684732   4.488357   4.515538   0.000000
     6  O    2.848419   3.007729   2.231792   3.669166   2.579321
     7  O    3.463025   2.288191   3.595872   2.749669   4.614253
     8  C    2.916746   5.139241   6.333529   4.877590   3.567379
     9  C    2.406811   4.060164   5.828212   4.748307   2.334693
    10  C    3.595512   4.496229   6.879635   5.961173   2.752904
    11  C    2.554801   1.230961   3.214184   2.671168   3.411392
    12  C    1.469663   2.430508   2.349465   1.513792   3.101041
    13  C    4.277042   6.324904   7.720264   6.157003   4.705360
    14  C    5.002616   6.571953   8.507456   7.097468   4.888910
    15  C    2.457423   2.872888   1.333374   2.535678   3.163603
    16  C    1.313042   2.849258   4.427993   3.733536   1.286041
    17  C    4.766177   5.809931   8.175733   7.047894   4.119783
    18  H    1.013465   3.485670   4.244964   2.417807   3.160577
    19  H    2.416950   2.196106   3.708034   4.183380   0.995535
    20  H    4.295622   4.294272   0.969993   3.687108   4.780306
    21  H    3.361138   3.961950   2.481316   1.088044   5.216828
    22  H    2.648747   3.894848   3.768888   1.093602   4.855503
    23  H    2.777685   4.578350   2.928492   1.094496   4.882729
    24  H    2.702460   5.289581   5.833166   4.263382   3.907569
    25  H    3.860433   4.076287   6.817388   6.210563   2.459262
    26  H    4.987981   7.225013   8.312964   6.599700   5.669063
    27  H    5.711043   6.417353   9.044496   8.007965   4.805892
    28  N    6.450880   7.988214   9.964604   8.460757   6.330626
    29  O    7.220232   8.433651  10.721982   9.332664   6.796508
    30  O    6.940217   8.752504  10.414674   8.752997   7.122226
                    6          7          8          9         10
     6  O    0.000000
     7  O    4.132324   0.000000
     8  C    5.235845   6.077267   0.000000
     9  C    4.419786   5.408288   1.398047   0.000000
    10  C    5.239579   6.144899   2.429157   1.397728   0.000000
    11  C    3.140420   1.213321   5.240593   4.424305   5.138564
    12  C    2.402337   2.461458   4.360802   3.843196   4.926893
    13  C    6.576081   7.279196   1.388073   2.412221   2.803711
    14  C    7.119069   7.800883   2.381417   2.741453   2.383360
    15  C    1.220137   3.298659   5.195808   4.562846   5.564997
    16  C    2.998632   4.280277   2.516635   1.483864   2.466466
    17  C    6.579643   7.332719   2.800679   2.410400   1.388345
    18  H    3.810488   3.775865   2.514141   2.451510   3.726120
    19  H    1.760058   4.102419   4.346506   3.204274   3.713952
    20  H    2.261117   4.324794   6.956165   6.371702   7.344965
    21  H    3.979733   2.528111   5.946146   5.728382   6.878365
    22  H    4.510790   2.736822   4.698969   4.678576   5.837855
    23  H    3.916525   3.836187   4.825119   4.933789   6.257621
    24  H    5.042528   5.913811   1.085837   2.165301   3.415513
    25  H    5.032547   5.988060   3.404688   2.148361   1.083703
    26  H    7.342453   7.975219   2.167221   3.407840   3.885543
    27  H    7.350497   8.053714   3.882776   3.405684   2.166118
    28  N    8.584433   9.170943   3.728109   4.218386   3.731406
    29  O    9.203262   9.773833   4.681918   4.895636   4.086943
    30  O    9.197289   9.735013   4.081435   4.893801   4.684179
                   11         12         13         14         15
    11  C    0.000000
    12  C    1.732537   0.000000
    13  C    6.487416   5.718046   0.000000
    14  C    6.952735   6.457491   1.387379   0.000000
    15  C    2.513533   1.483737   6.580977   7.275977   0.000000
    16  C    3.190675   2.557579   3.783514   4.224690   3.130148
    17  C    6.402251   6.160812   2.439201   1.387363   6.877068
    18  H    3.109090   2.069061   3.795827   4.680341   3.277164
    19  H    2.897288   2.684203   5.573013   5.844151   2.433865
    20  H    3.880872   3.169032   8.339520   9.071739   1.862510
    21  H    2.807043   2.118667   7.229909   8.134419   2.765254
    22  H    2.855363   2.142115   5.857081   6.781048   3.455790
    23  H    3.661666   2.185746   6.077533   7.160470   2.861082
    24  H    5.165748   4.003513   2.139186   3.366079   4.835500
    25  H    4.934903   5.000815   3.887228   3.376290   5.491166
    26  H    7.265525   6.370589   1.082514   2.140960   7.261134
    27  H    7.126441   7.054966   3.407082   2.141133   7.727654
    28  N    8.370584   7.901370   2.460142   1.476935   8.744792
    29  O    8.948739   8.653633   3.541100   2.301852   9.456147
    30  O    8.999561   8.376528   2.694732   2.301998   9.263839
                   16         17         18         19         20
    16  C    0.000000
    17  C    3.749213   0.000000
    18  H    1.947608   4.688337   0.000000
    19  H    1.878229   5.093058   3.397335   0.000000
    20  H    4.944690   8.668037   5.039821   3.923668   0.000000
    21  H    4.605092   8.015122   3.462052   4.717350   3.422667
    22  H    3.908321   6.805458   2.280590   4.677955   4.733254
    23  H    4.041169   7.270342   2.643363   4.623567   3.823539
    24  H    2.753488   3.885740   2.143706   4.512836   6.498715
    25  H    2.645467   2.154581   4.212038   3.343322   7.196663
    26  H    4.679586   3.406828   4.373668   6.494131   8.963076
    27  H    4.630910   1.082641   5.689480   5.763156   9.495263
    28  N    5.701551   2.463101   6.057385   7.297807  10.535044
    29  O    6.342273   2.700020   6.922673   7.778267  11.251375
    30  O    6.357152   3.543507   6.416733   8.061175  11.025244
                   21         22         23         24         25
    21  H    0.000000
    22  H    1.747169   0.000000
    23  H    1.783831   1.796085   0.000000
    24  H    5.350228   4.145068   4.020909   0.000000
    25  H    7.021883   6.162427   6.629749   4.303106   0.000000
    26  H    7.681532   6.253780   6.388197   2.493801   4.969176
    27  H    8.940064   7.751101   8.288327   4.967709   2.516612
    28  N    9.505575   8.073417   8.485071   4.596777   4.614443
    29  O   10.348233   8.946602   9.442899   5.637860   4.763212
    30  O    9.818864   8.327589   8.660348   4.736749   5.651529
                   26         27         28         29         30
    26  H    0.000000
    27  H    4.278231   0.000000
    28  N    2.649181   2.654160   0.000000
    29  O    3.853794   2.376071   1.214728   0.000000
    30  O    2.367544   3.859142   1.215527   2.161398   0.000000
 Symmetry turned off by external request.
 Stoichiometry    C11H10N2O7
 Framework group  C1[X(C11H10N2O7)]
 Deg. of freedom    84
 Full point group                 C1      NOp   1
 Rotational constants (GHZ):           0.9162663           0.1417723           0.1391619
 Leave Link  202 at Sun Oct 23 01:17:39 2022, MaxMem=  8053063680 cpu:               0.1 elap:               0.0
 (Enter /project/chenjingdan/g16/l301.exe)
 Standard basis: 6-31G(d,p) (6D, 7F)
 Ernie: Thresh=  0.10000D-02 Tol=  0.10000D-05 Strict=F.
   350 basis functions,   630 primitive gaussians,   350 cartesian basis functions
    73 alpha electrons       73 beta electrons
       nuclear repulsion energy      1549.5063381794 Hartrees.
 IExCor= 4336 DFT=T Ex+Corr=M062X ExCW=0 ScaHFX=  0.540000
 ScaDFX=  1.000000  1.000000  1.000000  1.000000 ScalE2=  1.000000  1.000000
 IRadAn=      5 IRanWt=     -1 IRanGd=            0 ICorTp=0 IEmpDi=  4
 NAtoms=   30 NActive=   30 NUniq=   30 SFac= 1.00D+00 NAtFMM=   60 NAOKFM=F Big=F
 Integral buffers will be    131072 words long.
 Raffenetti 2 integral format.
 Two-electron integral symmetry is turned off.
 Leave Link  301 at Sun Oct 23 01:17:39 2022, MaxMem=  8053063680 cpu:               0.9 elap:               0.1
 (Enter /project/chenjingdan/g16/l302.exe)
 NPDir=0 NMtPBC=     1 NCelOv=     1 NCel=       1 NClECP=     1 NCelD=      1
         NCelK=      1 NCelE2=     1 NClLst=     1 CellRange=     0.0.
 One-electron integrals computed using PRISM.
 NBasis=   350 RedAO= T EigKep=  4.06D-04  NBF=   350
 NBsUse=   350 1.00D-06 EigRej= -1.00D+00 NBFU=   350
 Precomputing XC quadrature grid using
 IXCGrd= 4 IRadAn=           5 IRanWt=          -1 IRanGd=           0 AccXCQ= 0.00D+00.
 Generated NRdTot=       0 NPtTot=           0 NUsed=           0 NTot=          32
 NSgBfM=   345   345   345   345   345 MxSgAt=    30 MxSgA2=    30.
 Leave Link  302 at Sun Oct 23 01:17:39 2022, MaxMem=  8053063680 cpu:               3.7 elap:               0.3
 (Enter /project/chenjingdan/g16/l303.exe)
 DipDrv:  MaxL=1.
 Leave Link  303 at Sun Oct 23 01:17:39 2022, MaxMem=  8053063680 cpu:               0.5 elap:               0.1
 (Enter /project/chenjingdan/g16/l401.exe)
 Initial guess from the checkpoint file:  "rev_M1_DECB_conf2_irc.chk"
 B after Tr=     0.051840    0.044502    0.007595
         Rot=    1.000000   -0.000078   -0.000009    0.000003 Ang=  -0.01 deg.
 Guess basis will be translated and rotated to current coordinates.
 JPrj=2 DoOrth=T DoCkMO=T.
 Generating alternative initial guess.
 ExpMin= 1.61D-01 ExpMax= 5.48D+03 ExpMxC= 8.25D+02 IAcc=3 IRadAn=         5 AccDes= 0.00D+00
 Harris functional with IExCor= 1009 and IRadAn=       5 diagonalized for initial guess.
 HarFok:  IExCor= 1009 AccDes= 0.00D+00 IRadAn=         5 IDoV= 1 UseB2=F ITyADJ=14
 ICtDFT=  3500011 ScaDFX=  1.000000  1.000000  1.000000  1.000000
 FoFCou: FMM=F IPFlag=           0 FMFlag=      100000 FMFlg1=           0
         NFxFlg=           0 DoJE=T BraDBF=F KetDBF=T FulRan=T
         wScrn=  0.000000 ICntrl=       500 IOpCl=  0 I1Cent=   200000004 NGrid=           0
         NMat0=    1 NMatS0=      1 NMatT0=    0 NMatD0=    1 NMtDS0=    0 NMtDT0=    0
 Symmetry not used in FoFCou.
 Harris En= -1060.27825739077    
 Leave Link  401 at Sun Oct 23 01:17:40 2022, MaxMem=  8053063680 cpu:              13.7 elap:               0.9
 (Enter /project/chenjingdan/g16/l502.exe)
 Two-electron integral symmetry not used.
 Closed shell SCF:
 Using DIIS extrapolation, IDIIS=  1040.
 NGot=  8053063680 LenX=  8052809544 LenY=  8052686603
 Requested convergence on RMS density matrix=1.00D-08 within 128 cycles.
 Requested convergence on MAX density matrix=1.00D-06.
 Requested convergence on             energy=1.00D-06.
 No special actions if energy rises.
 Fock matrices will be formed incrementally for  20 cycles.
 Integral accuracy reduced to 1.0D-05 until final iterations.

 Cycle   1  Pass 0  IDiag  1:
 FoFJK:  IHMeth= 1 ICntrl=       0 DoSepK=F KAlg= 0 I1Cent=           0 FoldK=F
 IRaf= 740000000 NMat=       1 IRICut=       1 DoRegI=T DoRafI=F ISym2E= 0 IDoP0=0 IntGTp=1.
 FoFCou: FMM=F IPFlag=           0 FMFlag=      100000 FMFlg1=           0
         NFxFlg=           0 DoJE=F BraDBF=F KetDBF=F FulRan=T
         wScrn=  0.000000 ICntrl=         0 IOpCl=  0 I1Cent=           0 NGrid=           0
         NMat0=    1 NMatS0=      1 NMatT0=    0 NMatD0=    1 NMtDS0=    0 NMtDT0=    0
[...]
 Alpha virt. eigenvalues --    0.87452   0.90169   0.91030   0.91672   0.92188
 Alpha virt. eigenvalues --    0.93914   0.95666   0.97366   0.98049   0.98745
 Alpha virt. eigenvalues --    0.99758   1.00553   1.01263   1.01533   1.02046
 Alpha virt. eigenvalues --    1.02860   1.03775   1.06431   1.07328   1.07813
 Alpha virt. eigenvalues --    1.09066   1.10515   1.11983   1.13207   1.14480
 Alpha virt. eigenvalues --    1.15295   1.15458   1.17194   1.19104   1.21820
 Alpha virt. eigenvalues --    1.22807   1.23657   1.24639   1.26965   1.27683
 Alpha virt. eigenvalues --    1.30270   1.30506   1.31325   1.33821   1.34651
 Alpha virt. eigenvalues --    1.37180   1.37861   1.38130   1.39562   1.40226
 Alpha virt. eigenvalues --    1.41065   1.41397   1.42993   1.43978   1.45289
 Alpha virt. eigenvalues --    1.46879   1.46945   1.48490   1.49581   1.50477
 Alpha virt. eigenvalues --    1.53464   1.54579   1.55653   1.57609   1.61499
 Alpha virt. eigenvalues --    1.62735   1.65384   1.68312   1.71389   1.73196
 Alpha virt. eigenvalues --    1.73555   1.73924   1.75593   1.76365   1.76969
 Alpha virt. eigenvalues --    1.77682   1.78396   1.79782   1.80402   1.82805
 Alpha virt. eigenvalues --    1.84493   1.85240   1.85504   1.87533   1.88890
 Alpha virt. eigenvalues --    1.89741   1.90324   1.91663   1.93201   1.93899
 Alpha virt. eigenvalues --    1.95604   1.95705   1.96620   1.96825   1.98383
 Alpha virt. eigenvalues --    1.99645   2.01032   2.02923   2.04531   2.04865
 Alpha virt. eigenvalues --    2.07089   2.07850   2.08923   2.09308   2.10303
 Alpha virt. eigenvalues --    2.11923   2.13849   2.14416   2.15614   2.16825
 Alpha virt. eigenvalues --    2.18068   2.18940   2.19848   2.23476   2.24775
 Alpha virt. eigenvalues --    2.26392   2.26788   2.27982   2.28644   2.30444
 Alpha virt. eigenvalues --    2.32116   2.35106   2.36837   2.38728   2.39742
 Alpha virt. eigenvalues --    2.39857   2.40621   2.41752   2.43649   2.44046
 Alpha virt. eigenvalues --    2.45770   2.48473   2.49895   2.52875   2.53579
 Alpha virt. eigenvalues --    2.54767   2.56901   2.58684   2.59722   2.60114
 Alpha virt. eigenvalues --    2.61462   2.62683   2.64530   2.67203   2.68065
 Alpha virt. eigenvalues --    2.70512   2.71918   2.73344   2.73699   2.75054
 Alpha virt. eigenvalues --    2.75599   2.78521   2.79969   2.81378   2.81899
 Alpha virt. eigenvalues --    2.82788   2.86177   2.88324   2.88805   2.91147
 Alpha virt. eigenvalues --    2.94311   2.94477   2.95485   2.99896   3.01196
 Alpha virt. eigenvalues --    3.02629   3.02871   3.03821   3.04962   3.09319
 Alpha virt. eigenvalues --    3.14192   3.17387   3.18326   3.19434   3.21482
 Alpha virt. eigenvalues --    3.21748   3.24605   3.31809   3.33180   3.36884
 Alpha virt. eigenvalues --    3.41967   3.44330   3.46293   3.50467   3.57545
 Alpha virt. eigenvalues --    3.66664   3.76021   3.79907   3.92805   3.93766
 Alpha virt. eigenvalues --    4.03616   4.10694   4.13519   4.14774   4.15059
 Alpha virt. eigenvalues --    4.20515   4.28841   4.33039   4.41188   4.45155
 Alpha virt. eigenvalues --    4.48973   4.53407   4.55515   4.60409   4.75107
 Alpha virt. eigenvalues --    4.78463   4.83804
          Condensed to atoms (all electrons):
               1          2          3          4          5          6
     1  N    7.089346  -0.003835   0.002061  -0.061442  -0.091912  -0.003360
     2  O   -0.003835   7.928366   0.000137   0.000647  -0.003559   0.000172
     3  O    0.002061   0.000137   8.097807  -0.004708  -0.000037  -0.080272
     4  C   -0.061442   0.000647  -0.004708   4.978309   0.000038   0.003141
     5  O   -0.091912  -0.003559  -0.000037   0.000038   8.246183  -0.069469
     6  O   -0.003360   0.000172  -0.080272   0.003141  -0.069469   8.239414
     7  O   -0.000056  -0.027948  -0.000144  -0.005972  -0.000001   0.000151
     8  C   -0.006956   0.000005   0.000000  -0.000039   0.000815   0.000008
     9  C   -0.104272  -0.000634  -0.000001  -0.000260  -0.092201   0.000014
    10  C    0.004497   0.000044   0.000000   0.000004   0.004653   0.000006
    11  C   -0.009113   0.547779   0.000726  -0.006411   0.000451  -0.000482
    12  C    0.190310  -0.033610  -0.092759   0.349594   0.004839  -0.087261
    13  C    0.000491   0.000000   0.000000   0.000000  -0.000085  -0.000000
    14  C   -0.000014  -0.000000  -0.000000  -0.000000  -0.000003   0.000000
    15  C   -0.046910  -0.004847   0.318308  -0.038194   0.005490   0.347161
    16  C    0.285673   0.007054  -0.000007   0.004951   0.480534   0.011280
    17  C   -0.000159   0.000000   0.000000   0.000000   0.000533   0.000000
    18  H    0.349525   0.000146  -0.000038  -0.005254   0.003034  -0.000138
    19  H   -0.002333   0.002325   0.001491  -0.000083   0.092982   0.244542
    20  H   -0.000124   0.000008   0.298710  -0.000113   0.000024   0.003419
    21  H    0.003568   0.000069   0.005281   0.390718   0.000003   0.000059
    22  H   -0.006286   0.000130   0.000284   0.372122  -0.000001  -0.000044
    23  H    0.000832  -0.000034   0.001001   0.391088  -0.000002   0.000011
    24  H    0.003992  -0.000000   0.000000   0.000112  -0.000072   0.000004
    25  H    0.000391   0.000031   0.000000   0.000000   0.006655   0.000006
    26  H    0.000005   0.000000  -0.000000  -0.000000   0.000000   0.000000
    27  H    0.000001  -0.000000   0.000000   0.000000  -0.000000   0.000000
    28  N   -0.000000  -0.000000  -0.000000  -0.000000  -0.000000   0.000000
    29  O    0.000000   0.000000   0.000000  -0.000000  -0.000000  -0.000000
    30  O   -0.000000   0.000000   0.000000  -0.000000  -0.000000  -0.000000
               7          8          9         10         11         12
     1  N   -0.000056  -0.006956  -0.104272   0.004497  -0.009113   0.190310
     2  O   -0.027948   0.000005  -0.000634   0.000044   0.547779  -0.033610
     3  O   -0.000144   0.000000  -0.000001   0.000000   0.000726  -0.092759
     4  C   -0.005972  -0.000039  -0.000260   0.000004  -0.006411   0.349594
     5  O   -0.000001   0.000815  -0.092201   0.004653   0.000451   0.004839
     6  O    0.000151   0.000008   0.000014   0.000006  -0.000482  -0.087261
     7  O    7.906591  -0.000000   0.000001  -0.000000   0.557805  -0.030135
     8  C   -0.000000   4.951468   0.532591  -0.035831   0.000006   0.000339
     9  C    0.000001   0.532591   4.975845   0.526930  -0.000153   0.004816
    10  C   -0.000000  -0.035831   0.526930   4.871742   0.000010  -0.000099
    11  C    0.557805   0.000006  -0.000153   0.000010   4.095915   0.054670
    12  C   -0.030135   0.000339   0.004816  -0.000099   0.054670   5.256011
    13  C   -0.000000   0.479108  -0.043193  -0.038643   0.000000  -0.000015
    14  C    0.000000  -0.026645  -0.031686  -0.028270  -0.000000   0.000000
    15  C   -0.002006  -0.000057   0.000307  -0.000003   0.004650   0.525112
    16  C   -0.000069  -0.052940   0.342200  -0.030090  -0.001530  -0.030945
    17  C   -0.000000  -0.044175  -0.040521   0.487422   0.000000   0.000002
    18  H    0.000031   0.006438  -0.001750  -0.000094   0.000047  -0.030293
    19  H    0.000013  -0.000069   0.002131  -0.000031  -0.000278   0.001513
    20  H    0.000011  -0.000000  -0.000000  -0.000000  -0.000075   0.009428
    21  H    0.002513   0.000000   0.000003  -0.000000  -0.000820  -0.023407
    22  H    0.003096  -0.000040  -0.000015  -0.000002  -0.001403  -0.032490
    23  H    0.000313  -0.000006   0.000015   0.000000   0.000348  -0.043155
    24  H   -0.000000   0.370499  -0.045163   0.004253   0.000001  -0.000369
    25  H   -0.000000   0.004474  -0.037963   0.379921   0.000002   0.000005
    26  H   -0.000000  -0.028500   0.002917   0.000281  -0.000000   0.000000
    27  H   -0.000000   0.000252   0.002879  -0.027471   0.000000  -0.000000
    28  N    0.000000   0.004008   0.000105   0.003516  -0.000000  -0.000000
    29  O   -0.000000  -0.000057  -0.000015   0.001032   0.000000   0.000000
    30  O   -0.000000   0.001093  -0.000011  -0.000040   0.000000   0.000000
              13         14         15         16         17         18
     1  N    0.000491  -0.000014  -0.046910   0.285673  -0.000159   0.349525
     2  O    0.000000  -0.000000  -0.004847   0.007054   0.000000   0.000146
     3  O    0.000000  -0.000000   0.318308  -0.000007   0.000000  -0.000038
     4  C    0.000000  -0.000000  -0.038194   0.004951   0.000000  -0.005254
     5  O   -0.000085  -0.000003   0.005490   0.480534   0.000533   0.003034
     6  O   -0.000000   0.000000   0.347161   0.011280   0.000000  -0.000138
     7  O   -0.000000   0.000000  -0.002006  -0.000069  -0.000000   0.000031
     8  C    0.479108  -0.026645  -0.000057  -0.052940  -0.044175   0.006438
     9  C   -0.043193  -0.031686   0.000307   0.342200  -0.040521  -0.001750
    10  C   -0.038643  -0.028270  -0.000003  -0.030090   0.487422  -0.000094
    11  C    0.000000  -0.000000   0.004650  -0.001530   0.000000   0.000047
    12  C   -0.000015   0.000000   0.525112  -0.030945   0.000002  -0.030293
    13  C    4.940969   0.528270  -0.000001   0.004985  -0.075516  -0.000247
    14  C    0.528270   4.901406   0.000000   0.000278   0.521792  -0.000004
    15  C   -0.000001   0.000000   4.346659  -0.005638  -0.000000   0.004534
    16  C    0.004985   0.000278  -0.005638   4.424098   0.005407  -0.030224
    17  C   -0.075516   0.521792  -0.000000   0.005407   4.948270  -0.000048
    18  H   -0.000247  -0.000004   0.004534  -0.030224  -0.000048   0.397542
    19  H    0.000001   0.000000  -0.016784  -0.009805   0.000001  -0.000115
    20  H   -0.000000   0.000000  -0.024830  -0.000014  -0.000000   0.000005
    21  H    0.000000   0.000000  -0.008512  -0.000059   0.000000  -0.000059
    22  H   -0.000001   0.000000   0.005811   0.000026  -0.000000   0.005552
    23  H    0.000000  -0.000000  -0.007486  -0.000055  -0.000000   0.000483
    24  H   -0.021657   0.002500  -0.000033  -0.005832   0.000629   0.001963
    25  H    0.000555   0.002710   0.000000  -0.006027  -0.029937  -0.000028
    26  H    0.367293  -0.023715   0.000000  -0.000114   0.004497   0.000003
    27  H    0.004607  -0.025742   0.000000  -0.000107   0.368414   0.000000
    28  N   -0.044398   0.187931   0.000000  -0.000000  -0.043163  -0.000000
    29  O    0.007037  -0.103900  -0.000000   0.000000   0.001243   0.000000
    30  O    0.000925  -0.105019  -0.000000   0.000000   0.006781   0.000000
              19         20         21         22         23         24
     1  N   -0.002333  -0.000124   0.003568  -0.006286   0.000832   0.003992
     2  O    0.002325   0.000008   0.000069   0.000130  -0.000034  -0.000000
     3  O    0.001491   0.298710   0.005281   0.000284   0.001001   0.000000
     4  C   -0.000083  -0.000113   0.390718   0.372122   0.391088   0.000112
     5  O    0.092982   0.000024   0.000003  -0.000001  -0.000002  -0.000072
     6  O    0.244542   0.003419   0.000059  -0.000044   0.000011   0.000004
     7  O    0.000013   0.000011   0.002513   0.003096   0.000313  -0.000000
     8  C   -0.000069  -0.000000   0.000000  -0.000040  -0.000006   0.370499
     9  C    0.002131  -0.000000   0.000003  -0.000015   0.000015  -0.045163
    10  C   -0.000031  -0.000000  -0.000000  -0.000002   0.000000   0.004253
    11  C   -0.000278  -0.000075  -0.000820  -0.001403   0.000348   0.000001
    12  C    0.001513   0.009428  -0.023407  -0.032490  -0.043155  -0.000369
    13  C    0.000001  -0.000000   0.000000  -0.000001   0.000000  -0.021657
    14  C    0.000000   0.000000   0.000000   0.000000  -0.000000   0.002500
    15  C   -0.016784  -0.024830  -0.008512   0.005811  -0.007486  -0.000033
    16  C   -0.009805  -0.000014  -0.000059   0.000026  -0.000055  -0.005832
    17  C    0.000001  -0.000000   0.000000  -0.000000  -0.000000   0.000629
    18  H   -0.000115   0.000005  -0.000059   0.005552   0.000483   0.001963
    19  H    0.246631   0.000180   0.000002   0.000009  -0.000016  -0.000008
    20  H    0.000180   0.354624   0.000046   0.000006  -0.000060  -0.000000
    21  H    0.000002   0.000046   0.501055  -0.021949  -0.023764  -0.000001
    22  H    0.000009   0.000006  -0.021949   0.594155  -0.037179  -0.000038
    23  H   -0.000016  -0.000060  -0.023764  -0.037179   0.580899   0.000074
    24  H   -0.000008  -0.000000  -0.000001  -0.000038   0.000074   0.545659
    25  H   -0.000042  -0.000000  -0.000000  -0.000000   0.000000  -0.000122
    26  H   -0.000000  -0.000000  -0.000000   0.000000  -0.000000  -0.003655
    27  H   -0.000000   0.000000  -0.000000  -0.000000   0.000000   0.000014
    28  N    0.000000   0.000000   0.000000   0.000000  -0.000000  -0.000082
    29  O    0.000000  -0.000000   0.000000  -0.000000   0.000000   0.000001
    30  O    0.000000   0.000000  -0.000000  -0.000000   0.000000   0.000001
              25         26         27         28         29         30
     1  N    0.000391   0.000005   0.000001  -0.000000   0.000000  -0.000000
     2  O    0.000031   0.000000  -0.000000  -0.000000   0.000000   0.000000
     3  O    0.000000  -0.000000   0.000000  -0.000000   0.000000   0.000000
     4  C    0.000000  -0.000000   0.000000  -0.000000  -0.000000  -0.000000
     5  O    0.006655   0.000000  -0.000000  -0.000000  -0.000000  -0.000000
     6  O    0.000006   0.000000   0.000000   0.000000  -0.000000  -0.000000
     7  O   -0.000000  -0.000000  -0.000000   0.000000  -0.000000  -0.000000
     8  C    0.004474  -0.028500   0.000252   0.004008  -0.000057   0.001093
     9  C   -0.037963   0.002917   0.002879   0.000105  -0.000015  -0.000011
    10  C    0.379921   0.000281  -0.027471   0.003516   0.001032  -0.000040
    11  C    0.000002  -0.000000   0.000000  -0.000000   0.000000   0.000000
    12  C    0.000005   0.000000  -0.000000  -0.000000   0.000000   0.000000
    13  C    0.000555   0.367293   0.004607  -0.044398   0.007037   0.000925
    14  C    0.002710  -0.023715  -0.025742   0.187931  -0.103900  -0.105019
    15  C    0.000000   0.000000   0.000000   0.000000  -0.000000  -0.000000
    16  C   -0.006027  -0.000114  -0.000107  -0.000000   0.000000   0.000000
    17  C   -0.029937   0.004497   0.368414  -0.043163   0.001243   0.006781
    18  H   -0.000028   0.000003   0.000000  -0.000000   0.000000   0.000000
    19  H   -0.000042  -0.000000  -0.000000   0.000000   0.000000   0.000000
    20  H   -0.000000  -0.000000   0.000000   0.000000  -0.000000   0.000000
    21  H   -0.000000  -0.000000  -0.000000   0.000000   0.000000  -0.000000
    22  H   -0.000000   0.000000  -0.000000   0.000000  -0.000000  -0.000000
    23  H    0.000000  -0.000000   0.000000  -0.000000   0.000000   0.000000
    24  H   -0.000122  -0.003655   0.000014  -0.000082   0.000001   0.000001
    25  H    0.504277   0.000012  -0.003293  -0.000070   0.000002   0.000001
    26  H    0.000012   0.490997  -0.000114  -0.011039   0.000151   0.014280
    27  H   -0.003293  -0.000114   0.489605  -0.010639   0.013432   0.000132
    28  N   -0.000070  -0.011039  -0.010639   5.882733   0.303913   0.303873
    29  O    0.000002   0.000151   0.013432   0.303913   8.284970  -0.109161
    30  O    0.000001   0.014280   0.000132   0.303873  -0.109161   8.289798
 Mulliken charges:
               1
     1  N   -0.593918
     2  O   -0.412447
     3  O   -0.547841
     4  C   -0.368246
     5  O   -0.588890
     6  O   -0.608360
     7  O   -0.404196
     8  C   -0.155790
     9  C    0.007086
    10  C   -0.123737
    11  C    0.757854
    12  C    0.007900
    13  C   -0.110486
    14  C    0.200111
    15  C    0.597269
    16  C    0.606970
    17  C   -0.111474
    18  H    0.298987
    19  H    0.437745
    20  H    0.358755
    21  H    0.175255
    22  H    0.118256
    23  H    0.136691
    24  H    0.147328
    25  H    0.178441
    26  H    0.186700
    27  H    0.188030
    28  N    0.423311
    29  O   -0.398649
    30  O   -0.402653
 Sum of Mulliken charges =  -0.00000
 Mulliken charges with hydrogens summed into heavy atoms:
               1
     1  N   -0.294931
     2  O   -0.412447
     3  O   -0.189085
     4  C    0.061955
     5  O   -0.588890
     6  O   -0.170615
     7  O   -0.404196
     8  C   -0.008462
     9  C    0.007086
    10  C    0.054704
    11  C    0.757854
    12  C    0.007900
    13  C    0.076214
    14  C    0.200111
    15  C    0.597269
    16  C    0.606970
    17  C    0.076555
    28  N    0.423311
    29  O   -0.398649
    30  O   -0.402653
 APT charges:
               1
     1  N   -0.374116
     2  O   -0.951874
     3  O   -0.750089
     4  C   -1.369394
     5  O   -0.212115
     6  O   -0.054246
     7  O    0.722503
     8  C   -0.564057
     9  C   -0.393234
    10  C   -0.507577
    11  C    0.117233
    12  C   -0.449427
    13  C   -0.501870
    14  C    0.495708
    15  C    0.278617
    16  C   -0.029576
    17  C   -0.493942
    18  H    0.414848
    19  H    0.064088
    20  H    1.049793
    21  H    0.802039
    22  H    0.234393
    23  H    0.418616
    24  H    0.342505
    25  H    0.408978
    26  H    0.739973
    27  H    0.803598
    28  N   -0.547706
    29  O    0.186769
    30  O    0.119564
 Sum of APT charges =  -0.00000
 APT charges with hydrogens summed into heavy atoms:
               1
     1  N    0.040731
     2  O   -0.951874
     3  O    0.299704
     4  C    0.085654
     5  O   -0.212115
     6  O    0.009843
     7  O    0.722503
     8  C   -0.221552
     9  C   -0.393234
    10  C   -0.098599
    11  C    0.117233
    12  C   -0.449427
    13  C    0.238103
    14  C    0.495708
    15  C    0.278617
    16  C   -0.029576
    17  C    0.309656
    28  N   -0.547706
    29  O    0.186769
    30  O    0.119564
 Electronic spatial extent (au):  <R**2>=           7490.9096
 Charge=             -0.0000 electrons
 Dipole moment (field-independent basis, Debye):
    X=              2.3040    Y=              1.8851    Z=              0.3211  Tot=              2.9942
 Quadrupole moment (field-independent basis, Debye-Ang):
   XX=           -139.3352   YY=           -109.7224   ZZ=           -115.0599
   XY=              2.5816   XZ=              4.0185   YZ=              1.5867
 Traceless Quadrupole moment (field-independent basis, Debye-Ang):
   XX=            -17.9627   YY=             11.6502   ZZ=              6.3126
   XY=              2.5816   XZ=              4.0185   YZ=              1.5867
 Octapole moment (field-independent basis, Debye-Ang**2):
  XXX=            261.8205  YYY=             -9.2846  ZZZ=              1.3765  XYY=             -4.0853
  XXY=            -43.3594  XXZ=             49.2130  XZZ=             -4.0205  YZZ=             -4.9234
  YYZ=             -4.6386  XYZ=             -1.4344
 Hexadecapole moment (field-independent basis, Debye-Ang**3):
 XXXX=          -8762.2273 YYYY=           -861.7739 ZZZZ=           -678.4662 XXXY=            -63.8097
 XXXZ=            172.6126 YYYX=             13.3757 YYYZ=              3.5547 ZZZX=             64.5428
 ZZZY=              5.5932 XXYY=          -1465.0140 XXZZ=          -1361.3605 YYZZ=           -265.7220
 XXYZ=            -19.5065 YYXZ=             -5.8737 ZZXY=            -25.6477
 N-N= 1.538645231928D+03 E-N=-5.556828310027D+03  KE= 1.052433533922D+03
  Exact polarizability:       0.000       0.000       0.000       0.000       0.000       0.000
 Approx polarizability:     238.772      13.224     224.915      14.530      -4.580     121.867
 No NMR shielding tensors so no spin-rotation constants.
 Leave Link  601 at Sun Oct 23 01:45:27 2022, MaxMem=  8053063680 cpu:               2.6 elap:               0.2
 (Enter /project/chenjingdan/g16/l9999.exe)

 This type of calculation cannot be archived.


 MANHOOD BEGINS BY TRYING TO SHAVE FACE,
 AND ENDS BY TRYING TO SAVE FACE.
 Job cpu time:       0 days  8 hours 29 minutes 44.3 seconds.
 Elapsed time:       0 days  0 hours 32 minutes 19.4 seconds.
 File lengths (MBytes):  RWF=    424 Int=      0 D2E=      0 Chk=     14 Scr=      1
 Normal termination of Gaussian 16 at Sun Oct 23 01:45:27 2022.
