 Entering Gaussian System, Link 0=g16
 Initial command:
 /project/chenjingdan/g16/l1.exe "/scratch/chenjingdan/scratch/Gau-49823.inp" -scrdir="/scratch/chenjingdan/scratch/"
 Entering Link 1 = /project/chenjingdan/g16/l1.exe PID=     49824.
  
 Copyright (c) 1988-2019, Gaussian, Inc.  All Rights Reserved.
  
 This is part of the Gaussian(R) 16 program.  It is based on
 the Gaussian(R) 09 system (copyright 2009, Gaussian, Inc.),
 the Gaussian(R) 03 system (copyright 2003, Gaussian, Inc.),
 the Gaussian(R) 98 system (copyright 1998, Gaussian, Inc.),
 the Gaussian(R) 94 system (copyright 1995, Gaussian, Inc.),
 the Gaussian 92(TM) system (copyright 1992, Gaussian, Inc.),
 the Gaussian 90(TM) system (copyright 1990, Gaussian, Inc.),
 the Gaussian 88(TM) system (copyright 1988, Gaussian, Inc.),
 the Gaussian 86(TM) system (copyright 1986, Carnegie Mellon
 University), and the Gaussian 82(TM) system (copyright 1983,
 Carnegie Mellon University). Gaussian is a federally registered
 trademark of Gaussian, Inc.
  
 This software contains proprietary and confidential information,
 including trade secrets, belonging to Gaussian, Inc.
  
 This software is provided under written license and may be
 used, copied, transmitted, or stored only in accord with that
 written license.
  
 The following legend is applicable only to US Government
 contracts under FAR:
  
                    RESTRICTED RIGHTS LEGEND
  
 Use, reproduction and disclosure by the US Government is
 subject to restrictions as set forth in subparagraphs (a)
 and (c) of the Commercial Computer Software - Restricted
 Rights clause in FAR 52.227-19.
  
 Gaussian, Inc.
 340 Quinnipiac St., Bldg. 40, Wallingford CT 06492
  
  
 ---------------------------------------------------------------
 Warning -- This program may not be used in any manner that
 competes with the business of Gaussian, Inc. or will provide
 assistance to any competitor of Gaussian, Inc.  The licensee
 of this program is prohibited from giving any competitor of
 Gaussian, Inc. access to this program.  By using this program,
 the user acknowledges that Gaussian, Inc. is engaged in the
 business of creating and licensing software in the field of
 computational chemistry and represents and warrants to the
 licensee that it is not a competitor of Gaussian, Inc. and that
 it will not use this program in any manner prohibited above.
 ---------------------------------------------------------------
  

 Cite this work as:
 Gaussian 16, Revision C.01,
 M. J. Frisch, G. W. Trucks, H. B. Schlegel, G. E. Scuseria, 
 M. A. Robb, J. R. Cheeseman, G. Scalmani, V. Barone, 
 G. A. Petersson, H. Nakatsuji, X. Li, M. Caricato, A. V. Marenich, 
 J. Bloino, B. G. Janesko, R. Gomperts, B. Mennucci, H. P. Hratchian, 
 J. V. Ortiz, A. F. Izmaylov, J. L. Sonnenberg, D. Williams-Young, 
 F. Ding, F. Lipparini, F. Egidi, J. Goings, B. Peng, A. Petrone, 
 T. Henderson, D. Ranasinghe, V. G. Zakrzewski, J. Gao, N. Rega, 
 G. Zheng, W. Liang, M. Hada, M. Ehara, K. Toyota, R. Fukuda, 
 J. Hasegawa, M. Ishida, T. Nakajima, Y. Honda, O. Kitao, H. Nakai, 
 T. Vreven, K. Throssell, J. A. Montgomery, Jr., J. E. Peralta, 
 F. Ogliaro, M. J. Bearpark, J. J. Heyd, E. N. Brothers, K. N. Kudin, 
 V. N. Staroverov, T. A. Keith, R. Kobayashi, J. Normand, 
 K. Raghavachari, A. P. Rendell, J. C. Burant, S. S. Iyengar, 
 J. Tomasi, M. Cossi, J. M. Millam, M. Klene, C. Adamo, R. Cammi, 
 J. W. Ochterski, R. L. Martin, K. Morokuma, O. Farkas, 
 J. B. Foresman, and D. J. Fox, Gaussian, Inc., Wallingford CT, 2019.
 
 ******************************************
 Gaussian 16:  ES64L-G16RevC.01  3-Jul-2019
                10-Nov-2022 
 ******************************************
 %nproc=16
 Will use up to   16 processors via shared memory.
 %mem=60GB
 %oldchk=DA_ts.chk
 %chk=rough_irc_DA.chk
 Copying data from "DA_ts.chk" to current chk file "rough_irc_DA.chk"
 IOpt=  2 FromEx=T IUOpen= 4 IOptOp= 5 NList=   0 IFRang= 0 IUIn= 4 IUOut= 2.
 ----------------------------------------------------------------------
 #p irc=(ReadCartesianFC,stepsize=15,lqa,maxpoints=15) b3lyp/6-31g(d) e
 m=gd3bj geom=allcheck guess=read
 ----------------------------------------------------------------------
 1/10=5,18=10,26=3,29=7,38=1,39=15,42=15,44=3,45=2,172=1/1,23;
 2/12=2,29=1,40=1/2;
 3/5=1,6=6,7=1,11=2,14=-4,25=1,30=1,71=2,74=-5,116=-2,124=41,140=1/1,2,3;
 4/5=1/1;
 5/5=2,38=6/2;
 8/6=4,10=90,11=11/1;
 11/6=1,8=1,9=11,15=111,16=1/1,2,10;
 10/6=1,13=1/2;
 6/7=2,8=2,9=2,10=2,28=1/1;
 7/10=1,25=1/1,2,3,16;
 1/18=10,26=3,39=15,42=15,44=3,45=2/23(2);
 2/29=1/2;
 99/5=20/99;
 2/29=1/2;
 3/5=1,6=6,7=1,11=2,14=-2,25=1,30=1,71=2,74=-5,124=41,140=1/1,2,3;
 4/5=5,16=3,69=1/1;
 5/5=2,38=5/2;
 8/6=4,10=90,11=11/1;
 11/6=1,8=1,9=11,15=111,16=1/1,2,10;
 10/6=1,13=1/2;
 7/10=1,25=1/1,2,3,16;
 1/18=10,26=3,39=15,42=15,44=3,45=2/23(-8);
 2/29=1/2;
 6/7=2,8=2,9=2,10=2,19=2,28=1/1;
 99/5=20,9=1/99;
 Leave Link    1 at Thu Nov 10 12:59:26 2022, MaxMem=  8053063680 cpu:               1.6 elap:               0.1
 (Enter /project/chenjingdan/g16/l101.exe)
 Structure from the checkpoint file:  "rough_irc_DA.chk"
 -------------------
 Title Card Required
 -------------------
 Charge =  0 Multiplicity = 1
 Redundant internal coordinates found in file.  (old form).
 C,0,-1.5504399691,0.7415546404,-0.2216788466
 H,0,-1.4242054094,1.2794400393,-1.1539759043
 H,0,-2.0235941508,1.3033880227,0.5780542787
 C,0,-1.5949783495,-0.6413306481,-0.2182695983
 H,0,-2.1038808428,-1.1674670294,0.5838275904
 H,0,-1.5038927715,-1.1906999991,-1.1479871962
 C,0,0.5015761384,1.4200468867,0.4881720587
 H,0,0.4790658784,2.5010841834,0.3789711981
 H,0,0.1723985969,1.0562965056,1.4543827575
 C,0,1.3398399461,0.6595691301,-0.3029995597
 H,0,1.8908561659,1.1502201177,-1.1034570546
 C,0,1.2938418084,-0.7470848708,-0.2994732703
 H,0,1.8114308099,-1.2766805436,-1.0974146566
 C,0,0.4075797507,-1.4471552707,0.4953024097
 H,0,0.3146845395,-2.5249866277,0.3916310775
 H,0,0.1033898589,-1.0578645366,1.4597747162
 Recover connectivity data from disk.
 ITRead=  0  0  0  0  0  0  0  0  0  0  0  0  0  0  0  0
 MicOpt= -1 -1 -1 -1 -1 -1 -1 -1 -1 -1 -1 -1 -1 -1 -1 -1
 NAtoms=     16 NQM=       16 NQMF=       0 NMMI=      0 NMMIF=      0
                NMic=       0 NMicF=      0.
                    Isotopes and Nuclear Properties:
 (Nuclear quadrupole moments (NQMom) in fm**2, nuclear magnetic moments (NMagM)
  in nuclear magnetons)

  Atom         1           2           3           4           5           6           7           8           9          10
 IAtWgt=          12           1           1          12           1           1          12           1           1          12
 AtmWgt=  12.0000000   1.0078250   1.0078250  12.0000000   1.0078250   1.0078250  12.0000000   1.0078250   1.0078250  12.0000000
 NucSpn=           0           1           1           0           1           1           0           1           1           0
 AtZEff=   3.6000000   1.0000000   1.0000000   3.6000000   1.0000000   1.0000000   3.6000000   1.0000000   1.0000000   3.6000000
 NQMom=    0.0000000   0.0000000   0.0000000   0.0000000   0.0000000   0.0000000   0.0000000   0.0000000   0.0000000   0.0000000
 NMagM=    0.0000000   2.7928460   2.7928460   0.0000000   2.7928460   2.7928460   0.0000000   2.7928460   2.7928460   0.0000000
 AtZNuc=   6.0000000   1.0000000   1.0000000   6.0000000   1.0000000   1.0000000   6.0000000   1.0000000   1.0000000   6.0000000

  Atom        11          12          13          14          15          16
 IAtWgt=           1          12           1          12           1           1
 AtmWgt=   1.0078250  12.0000000   1.0078250  12.0000000   1.0078250   1.0078250
 NucSpn=           1           0           1           0           1           1
 AtZEff=   1.0000000   3.6000000   1.0000000   3.6000000   1.0000000   1.0000000
 NQMom=    0.0000000   0.0000000   0.0000000   0.0000000   0.0000000   0.0000000
 NMagM=    2.7928460   0.0000000   2.7928460   0.0000000   2.7928460   2.7928460
 AtZNuc=   1.0000000   6.0000000   1.0000000   6.0000000   1.0000000   1.0000000
 Leave Link  101 at Thu Nov 10 12:59:26 2022, MaxMem=  8053063680 cpu:               6.1 elap:               0.4
 (Enter /project/chenjingdan/g16/l123.exe)
 IRC-IRC-IRC-IRC-IRC-IRC-IRC-IRC-IRC-IRC-IRC-IRC-IRC-IRC-IRC-IRC-IRC-IRC
 ------------------------------------------------------------------------
 INPUT DATA FOR L123
 ------------------------------------------------------------------------
 GENERAL PARAMETERS:
 Follow reaction path in both directions.
 Maximum points per path      =  15
 Step size                    =   0.150 bohr
 Integration scheme           = LQA                                 
 Initial Hessian              = ReadFC from chk
 Hessian evaluation           = All updating
 Hessian updating method      = Bofill                              
 ------------------------------------------------------------------------
          ******** Start new reaction path calculation ********
 RCFC Option Requested - Data Read From Chk File:
 "rough_irc_DA.chk"
   Energy From Chk =   -234.5693176

 Current Structure is TS -> form Hessian eigenvectors.
                            Recovering Hessian eigenvectors from chk file.
 Supplied step size of   0.1500 bohr.
    Integration on MW PES will use step size of   0.4310 sqrt(amu)*bohr.
 Point Number:   0          Path Number:   1
 Calculating another point on the path.
 Point Number  1 in FORWARD path direction.
 Using LQA Reaction Path Following.
 IRC-IRC-IRC-IRC-IRC-IRC-IRC-IRC-IRC-IRC-IRC-IRC-IRC-IRC-IRC-IRC-IRC-IRC
 Leave Link  123 at Thu Nov 10 12:59:26 2022, MaxMem=  8053063680 cpu:               0.1 elap:               0.0
 (Enter /project/chenjingdan/g16/l202.exe)
                          Input orientation:                          
 ---------------------------------------------------------------------
 Center     Atomic      Atomic             Coordinates (Angstroms)
 Number     Number       Type             X           Y           Z
 ---------------------------------------------------------------------
      1          6           0       -1.610951    0.735632   -0.226981
      2          1           0       -1.444199    1.283212   -1.147706
      3          1           0       -2.046482    1.308091    0.587131
      4          6           0       -1.654989   -0.631075   -0.223620
      5          1           0       -2.126994   -1.170190    0.592954
      6          1           0       -1.524106   -1.192694   -1.141703
      7          6           0        0.500301    1.429733    0.500962
      8          1           0        0.468297    2.509738    0.388298
      9          1           0        0.128358    1.055203    1.447597
     10          6           0        1.310393    0.666168   -0.296748
     11          1           0        1.853772    1.150893   -1.106129
     12          6           0        1.264041   -0.751273   -0.293196
     13          1           0        1.774381   -1.274500   -1.100101
     14          6           0        0.405712   -1.456228    0.508147
     15          1           0        0.303347   -2.532419    0.400982
     16          1           0        0.059541   -1.053476    1.452992
 ---------------------------------------------------------------------
                    Distance matrix (angstroms):
                    1          2          3          4          5
     1  C    0.000000
     2  H    1.084151   0.000000
     3  H    1.086359   1.836580   0.000000
     4  C    1.367420   2.136085   2.137977   0.000000
     5  H    2.137932   3.084686   2.479595   1.086382   0.000000
     6  H    2.136047   2.477202   3.084747   1.084169   1.836576
     7  C    2.338603   2.553557   2.551142   3.068749   3.697397
     8  H    2.801659   2.742502   2.794209   3.840246   4.507693
     9  H    2.435475   3.043111   2.352506   2.969314   3.281677
    10  C    2.923003   2.948329   3.530144   3.237542   3.997425
    11  H    3.598562   3.300886   4.254859   4.033068   4.911294
    12  C    3.237414   3.493405   3.996938   2.922332   3.529854
    13  H    4.032796   4.111375   4.910755   3.597609   4.254179
    14  C    3.067832   3.697100   3.696072   2.337274   2.550217
    15  H    3.839145   4.473409   4.506203   2.800057   2.792683
    16  H    2.968798   3.805913   3.280555   2.434966   2.352492
                    6          7          8          9         10
     6  H    0.000000
     7  C    3.697795   0.000000
     8  H    4.474212   1.086337   0.000000
     9  H    3.806330   1.083851   1.831214   0.000000
    10  C    3.493379   1.369533   2.139431   2.142731   0.000000
    11  H    4.111413   2.119523   2.449350   3.083460   1.088722
    12  C    2.947639   2.443517   3.425178   2.753814   1.418204
    13  H    3.299763   3.391100   4.271024   3.824614   2.151012
    14  C    2.552577   2.887520   3.968270   2.695696   2.443536
    15  H    2.741227   3.968304   5.044871   3.741264   3.425191
    16  H    3.042985   2.695730   3.741277   2.109809   2.753797
                   11         12         13         14         15
    11  H    0.000000
    12  C    2.151018   0.000000
    13  H    2.426699   1.088719   0.000000
    14  C    3.391142   1.369613   2.119609   0.000000
    15  H    4.271064   2.139462   2.449398   1.086347   0.000000
    16  H    3.824606   2.142736   3.083474   1.083871   1.831240
                   16
    16  H    0.000000
 Symmetry turned off by external request.
 Stoichiometry    C6H10
 Framework group  C1[X(C6H10)]
 Deg. of freedom    42
 Full point group                 C1      NOp   1
 Rotational constants (GHZ):           4.3106827           3.3973196           2.2302862
 Leave Link  202 at Thu Nov 10 12:59:26 2022, MaxMem=  8053063680 cpu:               0.1 elap:               0.0
 (Enter /project/chenjingdan/g16/l301.exe)
 Standard basis: 6-31G(d) (6D, 7F)
 Ernie: Thresh=  0.10000D-02 Tol=  0.10000D-05 Strict=F.
   110 basis functions,   208 primitive gaussians,   110 cartesian basis functions
    23 alpha electrons       23 beta electrons
       nuclear repulsion energy       223.4795775887 Hartrees.
 IExCor=  402 DFT=T Ex+Corr=B3LYP ExCW=0 ScaHFX=  0.200000
 ScaDFX=  0.800000  0.720000  1.000000  0.810000 ScalE2=  1.000000  1.000000
 IRadAn=      5 IRanWt=     -1 IRanGd=            0 ICorTp=0 IEmpDi=141
 NAtoms=   16 NActive=   16 NUniq=   16 SFac= 1.00D+00 NAtFMM=   60 NAOKFM=F Big=F
 Integral buffers will be    131072 words long.
 Raffenetti 2 integral format.
 Two-electron integral symmetry is turned off.
 R6Disp:  Grimme-D3(BJ) Dispersion energy=       -0.0253942174 Hartrees.
 Nuclear repulsion after empirical dispersion term =      223.4541833713 Hartrees.
 Leave Link  301 at Thu Nov 10 12:59:27 2022, MaxMem=  8053063680 cpu:               2.2 elap:               0.2
 (Enter /project/chenjingdan/g16/l302.exe)
 NPDir=0 NMtPBC=     1 NCelOv=     1 NCel=       1 NClECP=     1 NCelD=      1
         NCelK=      1 NCelE2=     1 NClLst=     1 CellRange=     0.0.
 One-electron integrals computed using PRISM.
 NBasis=   110 RedAO= T EigKep=  2.28D-03  NBF=   110
 NBsUse=   110 1.00D-06 EigRej= -1.00D+00 NBFU=   110
 Precomputing XC quadrature grid using
 IXCGrd= 4 IRadAn=           5 IRanWt=          -1 IRanGd=           0 AccXCQ= 0.00D+00.
 Generated NRdTot=       0 NPtTot=           0 NUsed=           0 NTot=          32
 NSgBfM=   110   110   110   110   110 MxSgAt=    16 MxSgA2=    16.
 Leave Link  302 at Thu Nov 10 12:59:27 2022, MaxMem=  8053063680 cpu:               2.1 elap:               0.2
 (Enter /project/chenjingdan/g16/l303.exe)
 DipDrv:  MaxL=1.
 Leave Link  303 at Thu Nov 10 12:59:27 2022, MaxMem=  8053063680 cpu:               0.3 elap:               0.0
 (Enter /project/chenjingdan/g16/l401.exe)
 Initial guess from the checkpoint file:  "rough_irc_DA.chk"
 B after Tr=    -0.052052    0.001709    0.007628
         Rot=   -0.015594    0.002855    0.001159    0.999874 Ang= 181.79 deg.
 Guess basis will be translated and rotated to current coordinates.
 JPrj=2 DoOrth=T DoCkMO=T.
 Leave Link  401 at Thu Nov 10 12:59:27 2022, MaxMem=  8053063680 cpu:               1.4 elap:               0.1
 (Enter /project/chenjingdan/g16/l502.exe)
 Two-electron integral symmetry not used.
 Closed shell SCF:
 Using DIIS extrapolation, IDIIS=  1040.
 NGot=  8053063680 LenX=  8053036108 LenY=  8053023567
 Requested convergence on RMS density matrix=1.00D-08 within 128 cycles.
 Requested convergence on MAX density matrix=1.00D-06.
 Requested convergence on             energy=1.00D-06.
 No special actions if energy rises.
 Fock matrices will be formed incrementally for  20 cycles.

 Cycle   1  Pass 1  IDiag  1:
 FoFJK:  IHMeth= 1 ICntrl=       0 DoSepK=F KAlg= 0 I1Cent=           0 FoldK=F
 IRaf= 990000000 NMat=       1 IRICut=       1 DoRegI=T DoRafI=F ISym2E= 0 IDoP0=0 IntGTp=1.
 FoFCou: FMM=F IPFlag=           0 FMFlag=      100000 FMFlg1=           0
         NFxFlg=           0 DoJE=F BraDBF=F KetDBF=F FulRan=T
         wScrn=  0.000000 ICntrl=         0 IOpCl=  0 I1Cent=           0 NGrid=           0
         NMat0=    1 NMatS0=      1 NMatT0=    0 NMatD0=    1 NMtDS0=    0 NMtDT0=    0
 Symmetry not used in FoFCou.
 E= -234.567240421001    
 DIIS: error= 3.63D-03 at cycle   1 NSaved=   1.
 NSaved= 1 IEnMin= 1 EnMin= -234.567240421001     IErMin= 1 ErrMin= 3.63D-03
 ErrMax= 3.63D-03  0.00D+00 EMaxC= 1.00D-01 BMatC= 8.45D-04 BMatP= 8.45D-04
 IDIUse=3 WtCom= 9.64D-01 WtEn= 3.63D-02
 Coeff-Com:  0.100D+01
 Coeff-En:   0.100D+01
 Coeff:      0.100D+01
 Gap=     0.210 Goal=   None    Shift=    0.000
 GapD=    0.210 DampG=1.000 DampE=1.000 DampFc=1.0000 IDamp=-1.
 RMSDP=6.31D-04 MaxDP=8.71D-03              OVMax= 4.02D-02

 Cycle   2  Pass 1  IDiag  1:
 RMSU=  6.31D-04    CP:  1.00D+00
 E= -234.569953494145     Delta-E=       -0.002713073144 Rises=F Damp=F
 DIIS: error= 1.23D-03 at cycle   2 NSaved=   2.
 NSaved= 2 IEnMin= 2 EnMin= -234.569953494145     IErMin= 2 ErrMin= 1.23D-03
 ErrMax= 1.23D-03  0.00D+00 EMaxC= 1.00D-01 BMatC= 8.52D-05 BMatP= 8.45D-04
 IDIUse=3 WtCom= 9.88D-01 WtEn= 1.23D-02
 Coeff-Com:  0.631D-01 0.937D+00
 Coeff-En:   0.000D+00 0.100D+01
 Coeff:      0.623D-01 0.938D+00
 Gap=     0.207 Goal=   None    Shift=    0.000
 RMSDP=2.18D-04 MaxDP=2.24D-03 DE=-2.71D-03 OVMax= 1.18D-02

 Cycle   3  Pass 1  IDiag  1:
 RMSU=  1.93D-04    CP:  9.99D-01  1.16D+00
 E= -234.570014315429     Delta-E=       -0.000060821284 Rises=F Damp=F
 DIIS: error= 1.03D-03 at cycle   3 NSaved=   3.
 NSaved= 3 IEnMin= 3 EnMin= -234.570014315429     IErMin= 3 ErrMin= 1.03D-03
 ErrMax= 1.03D-03  0.00D+00 EMaxC= 1.00D-01 BMatC= 9.01D-05 BMatP= 8.52D-05
 IDIUse=3 WtCom= 9.90D-01 WtEn= 1.03D-02
 Coeff-Com: -0.469D-01 0.527D+00 0.520D+00
 Coeff-En:   0.000D+00 0.316D+00 0.684D+00
 Coeff:     -0.464D-01 0.525D+00 0.522D+00
 Gap=     0.207 Goal=   None    Shift=    0.000
 RMSDP=1.15D-04 MaxDP=1.38D-03 DE=-6.08D-05 OVMax= 7.47D-03

 Cycle   4  Pass 1  IDiag  1:
 RMSU=  6.77D-05    CP:  1.00D+00  1.22D+00  5.63D-01
 E= -234.570110049836     Delta-E=       -0.000095734407 Rises=F Damp=F
 DIIS: error= 4.19D-04 at cycle   4 NSaved=   4.
 NSaved= 4 IEnMin= 4 EnMin= -234.570110049836     IErMin= 4 ErrMin= 4.19D-04
 ErrMax= 4.19D-04  0.00D+00 EMaxC= 1.00D-01 BMatC= 1.09D-05 BMatP= 8.52D-05
 IDIUse=3 WtCom= 9.96D-01 WtEn= 4.19D-03
 Coeff-Com: -0.304D-01 0.186D+00 0.308D+00 0.536D+00
 Coeff-En:   0.000D+00 0.000D+00 0.437D-01 0.956D+00
 Coeff:     -0.303D-01 0.186D+00 0.307D+00 0.538D+00
 Gap=     0.207 Goal=   None    Shift=    0.000
 RMSDP=3.92D-05 MaxDP=6.23D-04 DE=-9.57D-05 OVMax= 2.38D-03

 Cycle   5  Pass 1  IDiag  1:
 RMSU=  2.88D-05    CP:  9.99D-01  1.23D+00  6.49D-01  7.04D-01
 E= -234.570122792905     Delta-E=       -0.000012743069 Rises=F Damp=F
 DIIS: error= 9.56D-05 at cycle   5 NSaved=   5.
 NSaved= 5 IEnMin= 5 EnMin= -234.570122792905     IErMin= 5 ErrMin= 9.56D-05
 ErrMax= 9.56D-05  0.00D+00 EMaxC= 1.00D-01 BMatC= 7.81D-07 BMatP= 1.09D-05
 IDIUse=1 WtCom= 1.00D+00 WtEn= 0.00D+00
 Coeff-Com: -0.532D-02-0.798D-02 0.655D-01 0.253D+00 0.694D+00
 Coeff:     -0.532D-02-0.798D-02 0.655D-01 0.253D+00 0.694D+00
 Gap=     0.207 Goal=   None    Shift=    0.000
 RMSDP=1.27D-05 MaxDP=1.46D-04 DE=-1.27D-05 OVMax= 7.13D-04

 Cycle   6  Pass 1  IDiag  1:
 RMSU=  5.51D-06    CP:  9.99D-01  1.24D+00  6.72D-01  8.10D-01  8.15D-01
 E= -234.570123880876     Delta-E=       -0.000001087972 Rises=F Damp=F
 DIIS: error= 1.62D-05 at cycle   6 NSaved=   6.
 NSaved= 6 IEnMin= 6 EnMin= -234.570123880876     IErMin= 6 ErrMin= 1.62D-05
 ErrMax= 1.62D-05  0.00D+00 EMaxC= 1.00D-01 BMatC= 2.13D-08 BMatP= 7.81D-07
 IDIUse=1 WtCom= 1.00D+00 WtEn= 0.00D+00
 Coeff-Com:  0.157D-02-0.212D-01-0.108D-01 0.885D-02 0.163D+00 0.858D+00
 Coeff:      0.157D-02-0.212D-01-0.108D-01 0.885D-02 0.163D+00 0.858D+00
 Gap=     0.207 Goal=   None    Shift=    0.000
 RMSDP=2.99D-06 MaxDP=2.92D-05 DE=-1.09D-06 OVMax= 1.56D-04

 Cycle   7  Pass 1  IDiag  1:
 RMSU=  1.23D-06    CP:  9.99D-01  1.24D+00  6.78D-01  8.25D-01  8.63D-01
                    CP:  9.12D-01
 E= -234.570123918272     Delta-E=       -0.000000037396 Rises=F Damp=F
 DIIS: error= 2.77D-06 at cycle   7 NSaved=   7.
 NSaved= 7 IEnMin= 7 EnMin= -234.570123918272     IErMin= 7 ErrMin= 2.77D-06
 ErrMax= 2.77D-06  0.00D+00 EMaxC= 1.00D-01 BMatC= 1.06D-09 BMatP= 2.13D-08
 IDIUse=1 WtCom= 1.00D+00 WtEn= 0.00D+00
 Coeff-Com:  0.731D-03-0.871D-02-0.570D-02-0.203D-02 0.546D-01 0.341D+00
 Coeff-Com:  0.620D+00
 Coeff:      0.731D-03-0.871D-02-0.570D-02-0.203D-02 0.546D-01 0.341D+00
 Coeff:      0.620D+00
 Gap=     0.207 Goal=   None    Shift=    0.000
 RMSDP=4.35D-07 MaxDP=6.76D-06 DE=-3.74D-08 OVMax= 2.42D-05

 Cycle   8  Pass 1  IDiag  1:
 RMSU=  3.44D-07    CP:  9.99D-01  1.24D+00  6.78D-01  8.24D-01  8.68D-01
                    CP:  9.34D-01  8.87D-01
 E= -234.570123919350     Delta-E=       -0.000000001078 Rises=F Damp=F
 DIIS: error= 1.19D-06 at cycle   8 NSaved=   8.
 NSaved= 8 IEnMin= 8 EnMin= -234.570123919350     IErMin= 8 ErrMin= 1.19D-06
 ErrMax= 1.19D-06  0.00D+00 EMaxC= 1.00D-01 BMatC= 2.47D-10 BMatP= 1.06D-09
 IDIUse=1 WtCom= 1.00D+00 WtEn= 0.00D+00
 Coeff-Com:  0.162D-03-0.150D-02-0.142D-02-0.246D-02 0.542D-02 0.530D-01
 Coeff-Com:  0.341D+00 0.606D+00
 Coeff:      0.162D-03-0.150D-02-0.142D-02-0.246D-02 0.542D-02 0.530D-01
 Coeff:      0.341D+00 0.606D+00
 Gap=     0.207 Goal=   None    Shift=    0.000
 RMSDP=1.56D-07 MaxDP=2.55D-06 DE=-1.08D-09 OVMax= 6.70D-06

 Cycle   9  Pass 1  IDiag  1:
 RMSU=  9.76D-08    CP:  9.99D-01  1.24D+00  6.78D-01  8.25D-01  8.69D-01
                    CP:  9.40D-01  9.28D-01  7.10D-01
 E= -234.570123919625     Delta-E=       -0.000000000275 Rises=F Damp=F
 DIIS: error= 2.03D-07 at cycle   9 NSaved=   9.
 NSaved= 9 IEnMin= 9 EnMin= -234.570123919625     IErMin= 9 ErrMin= 2.03D-07
 ErrMax= 2.03D-07  0.00D+00 EMaxC= 1.00D-01 BMatC= 5.80D-12 BMatP= 2.47D-10
 IDIUse=1 WtCom= 1.00D+00 WtEn= 0.00D+00
 Coeff-Com:  0.755D-05 0.742D-04-0.617D-04-0.558D-03-0.144D-02-0.483D-02
 Coeff-Com:  0.772D-01 0.207D+00 0.722D+00
 Coeff:      0.755D-05 0.742D-04-0.617D-04-0.558D-03-0.144D-02-0.483D-02
 Coeff:      0.772D-01 0.207D+00 0.722D+00
 Gap=     0.207 Goal=   None    Shift=    0.000
 RMSDP=3.82D-08 MaxDP=4.74D-07 DE=-2.75D-10 OVMax= 1.15D-06

 Cycle  10  Pass 1  IDiag  1:
 RMSU=  2.20D-08    CP:  9.99D-01  1.24D+00  6.78D-01  8.25D-01  8.70D-01
                    CP:  9.41D-01  9.37D-01  7.32D-01  7.18D-01
 E= -234.570123919631     Delta-E=       -0.000000000005 Rises=F Damp=F
 DIIS: error= 1.17D-07 at cycle  10 NSaved=  10.
 NSaved=10 IEnMin=10 EnMin= -234.570123919631     IErMin=10 ErrMin= 1.17D-07
 ErrMax= 1.17D-07  0.00D+00 EMaxC= 1.00D-01 BMatC= 9.55D-13 BMatP= 5.80D-12
 IDIUse=1 WtCom= 1.00D+00 WtEn= 0.00D+00
 Coeff-Com: -0.211D-05 0.926D-04 0.250D-04-0.186D-03-0.946D-03-0.467D-02
 Coeff-Com:  0.278D-01 0.845D-01 0.385D+00 0.509D+00
 Coeff:     -0.211D-05 0.926D-04 0.250D-04-0.186D-03-0.946D-03-0.467D-02
 Coeff:      0.278D-01 0.845D-01 0.385D+00 0.509D+00
 Gap=     0.207 Goal=   None    Shift=    0.000
 RMSDP=1.32D-08 MaxDP=2.41D-07 DE=-5.40D-12 OVMax= 7.83D-07

 Cycle  11  Pass 1  IDiag  1:
 RMSU=  1.04D-08    CP:  9.99D-01  1.24D+00  6.78D-01  8.25D-01  8.70D-01
                    CP:  9.41D-01  9.38D-01  7.32D-01  7.49D-01  6.60D-01
 E= -234.570123919631     Delta-E=       -0.000000000001 Rises=F Damp=F
 DIIS: error= 5.94D-08 at cycle  11 NSaved=  11.
 NSaved=11 IEnMin=11 EnMin= -234.570123919631     IErMin=11 ErrMin= 5.94D-08
 ErrMax= 5.94D-08  0.00D+00 EMaxC= 1.00D-01 BMatC= 2.48D-13 BMatP= 9.55D-13
 IDIUse=1 WtCom= 1.00D+00 WtEn= 0.00D+00
 Coeff-Com: -0.312D-05 0.420D-04 0.325D-04 0.111D-04-0.287D-03-0.203D-02
 Coeff-Com:  0.444D-03 0.687D-02 0.892D-01 0.348D+00 0.558D+00
 Coeff:     -0.312D-05 0.420D-04 0.325D-04 0.111D-04-0.287D-03-0.203D-02
 Coeff:      0.444D-03 0.687D-02 0.892D-01 0.348D+00 0.558D+00
 Gap=     0.207 Goal=   None    Shift=    0.000
 RMSDP=5.13D-09 MaxDP=7.60D-08 DE=-5.68D-13 OVMax= 2.76D-07

 SCF Done:  E(RB3LYP) =  -234.570123920     A.U. after   11 cycles
            NFock= 11  Conv=0.51D-08     -V/T= 2.0100
 KE= 2.322408598583D+02 PE=-9.891409994474D+02 EE= 2.988758322982D+02
 Leave Link  502 at Thu Nov 10 12:59:30 2022, MaxMem=  8053063680 cpu:              40.9 elap:               2.6
 (Enter /project/chenjingdan/g16/l801.exe)
 DoSCS=F DFT=T ScalE2(SS,OS)=  1.000000  1.000000
 Range of M.O.s used for correlation:     1   110
 NBasis=   110 NAE=    23 NBE=    23 NFC=     0 NFV=     0
 NROrb=    110 NOA=    23 NOB=    23 NVA=    87 NVB=    87
 Leave Link  801 at Thu Nov 10 12:59:30 2022, MaxMem=  8053063680 cpu:               0.3 elap:               0.0
 (Enter /project/chenjingdan/g16/l1101.exe)
 Leave Link 1101 at Thu Nov 10 12:59:30 2022, MaxMem=  8053063680 cpu:               0.4 elap:               0.2
 (Enter /project/chenjingdan/g16/l1102.exe)
 Symmetrizing basis deriv contribution to polar:
 IMax=3 JMax=2 DiffMx= 0.00D+00
 Leave Link 1102 at Thu Nov 10 12:59:31 2022, MaxMem=  8053063680 cpu:               0.4 elap:               0.1
 (Enter /project/chenjingdan/g16/l1110.exe)
 Leave Link 1110 at Thu Nov 10 12:59:31 2022, MaxMem=  8053063680 cpu:               0.7 elap:               0.2
 (Enter /project/chenjingdan/g16/l1002.exe)
 Minotr:  Closed shell wavefunction.
 Leave Link 1002 at Thu Nov 10 12:59:32 2022, MaxMem=  8053063680 cpu:               0.3 elap:               0.0
 (Enter /project/chenjingdan/g16/l601.exe)
 Copying SCF densities to generalized density rwf, IOpCl= 0 IROHF=0.

 **********************************************************************

            Population analysis using the SCF Density.

 **********************************************************************

 Alpha  occ. eigenvalues --  -10.18378 -10.18376 -10.17736 -10.17683 -10.17668
 Alpha  occ. eigenvalues --  -10.17636  -0.80116  -0.74084  -0.71343  -0.61708
 Alpha  occ. eigenvalues --   -0.57457  -0.51663  -0.48665  -0.45906  -0.42484
 Alpha  occ. eigenvalues --   -0.40313  -0.40289  -0.36119  -0.34958  -0.33821
 Alpha  occ. eigenvalues --   -0.33377  -0.22180  -0.22000
 Alpha virt. eigenvalues --   -0.01252   0.02441   0.09559   0.10844   0.12191
 Alpha virt. eigenvalues --    0.14486   0.14489   0.15250   0.17152   0.20210
 Alpha virt. eigenvalues --    0.20646   0.23812   0.25039   0.29883   0.33122
 Alpha virt. eigenvalues --    0.36349   0.43896   0.46204   0.50525   0.52573
 Alpha virt. eigenvalues --    0.55462   0.57604   0.58298   0.61525   0.62840
 Alpha virt. eigenvalues --    0.64418   0.65872   0.66063   0.67450   0.72698
 Alpha virt. eigenvalues --    0.74089   0.82597   0.85974   0.86417   0.86956
 Alpha virt. eigenvalues --    0.87162   0.88670   0.89389   0.93967   0.95579
 Alpha virt. eigenvalues --    0.96099   0.99214   1.01706   1.05656   1.08833
 Alpha virt. eigenvalues --    1.09649   1.16765   1.23998   1.27717   1.39162
 Alpha virt. eigenvalues --    1.39714   1.49715   1.53195   1.60638   1.60710
 Alpha virt. eigenvalues --    1.72840   1.72944   1.85041   1.90080   1.92755
 Alpha virt. eigenvalues --    1.93364   1.95435   1.97951   2.02728   2.04872
 Alpha virt. eigenvalues --    2.10239   2.12255   2.20991   2.21495   2.26264
 Alpha virt. eigenvalues --    2.27769   2.28633   2.44216   2.54239   2.57529
 Alpha virt. eigenvalues --    2.60668   2.61500   2.69429   2.71634   2.87574
 Alpha virt. eigenvalues --    3.06212   4.12057   4.23104   4.27304   4.28535
 Alpha virt. eigenvalues --    4.42715   4.52829
          Condensed to atoms (all electrons):
               1          2          3          4          5          6
     1  C    5.007986   0.382042   0.377956   0.603656  -0.038633  -0.034105
     2  H    0.382042   0.553989  -0.043146  -0.034107   0.004947  -0.008065
     3  H    0.377956  -0.043146   0.571405  -0.038640  -0.008251   0.004947
     4  C    0.603656  -0.034107  -0.038640   5.008042   0.377950   0.382038
     5  H   -0.038633   0.004947  -0.008251   0.377950   0.571402  -0.043145
     6  H   -0.034105  -0.008065   0.004947   0.382038  -0.043145   0.554015
     7  C    0.060407  -0.004692  -0.006770  -0.012722   0.000692   0.000397
     8  H   -0.003113  -0.000728   0.000307   0.000809  -0.000019  -0.000018
     9  H   -0.010352   0.000701  -0.002622  -0.005725   0.000368  -0.000004
    10  C   -0.012813  -0.002066   0.000215  -0.019509   0.000441   0.000199
    11  H    0.000334   0.000438  -0.000039  -0.000078   0.000005  -0.000012
    12  C   -0.019547   0.000200   0.000441  -0.012885   0.000217  -0.002075
    13  H   -0.000078  -0.000012   0.000005   0.000333  -0.000039   0.000440
    14  C   -0.012765   0.000397   0.000692   0.060443  -0.006795  -0.004726
    15  H    0.000812  -0.000018  -0.000019  -0.003127   0.000306  -0.000732
    16  H   -0.005741  -0.000005   0.000371  -0.010399  -0.002632   0.000706
               7          8          9         10         11         12
     1  C    0.060407  -0.003113  -0.010352  -0.012813   0.000334  -0.019547
     2  H   -0.004692  -0.000728   0.000701  -0.002066   0.000438   0.000200
     3  H   -0.006770   0.000307  -0.002622   0.000215  -0.000039   0.000441
     4  C   -0.012722   0.000809  -0.005725  -0.019509  -0.000078  -0.012885
     5  H    0.000692  -0.000019   0.000368   0.000441   0.000005   0.000217
     6  H    0.000397  -0.000018  -0.000004   0.000199  -0.000012  -0.002075
     7  C    5.096442   0.362863   0.370011   0.588061  -0.059630  -0.041947
     8  H    0.362863   0.570539  -0.043503  -0.026087  -0.007449   0.005320
     9  H    0.370011  -0.043503   0.563530  -0.029322   0.005625  -0.014015
    10  C    0.588061  -0.026087  -0.029322   4.780110   0.368976   0.524866
    11  H   -0.059630  -0.007449   0.005625   0.368976   0.617714  -0.045355
    12  C   -0.041947   0.005320  -0.014015   0.524866  -0.045355   4.780310
    13  H    0.006689  -0.000163  -0.000004  -0.045349  -0.007703   0.368977
    14  C   -0.029965   0.000350   0.006052  -0.041939   0.006688   0.588001
    15  H    0.000350  -0.000006  -0.000098   0.005320  -0.000162  -0.026096
    16  H    0.006051  -0.000098   0.004932  -0.014013  -0.000004  -0.029320
              13         14         15         16
     1  C   -0.000078  -0.012765   0.000812  -0.005741
     2  H   -0.000012   0.000397  -0.000018  -0.000005
     3  H    0.000005   0.000692  -0.000019   0.000371
     4  C    0.000333   0.060443  -0.003127  -0.010399
     5  H   -0.000039  -0.006795   0.000306  -0.002632
     6  H    0.000440  -0.004726  -0.000732   0.000706
     7  C    0.006689  -0.029965   0.000350   0.006051
     8  H   -0.000163   0.000350  -0.000006  -0.000098
     9  H   -0.000004   0.006052  -0.000098   0.004932
    10  C   -0.045349  -0.041939   0.005320  -0.014013
    11  H   -0.007703   0.006688  -0.000162  -0.000004
    12  C    0.368977   0.588001  -0.026096  -0.029320
    13  H    0.617713  -0.059630  -0.007448   0.005624
    14  C   -0.059630   5.096576   0.362852   0.370027
    15  H   -0.007448   0.362852   0.570545  -0.043495
    16  H    0.005624   0.370027  -0.043495   0.563525
 Mulliken charges:
               1
     1  C   -0.296044
     2  H    0.150125
     3  H    0.143148
     4  C   -0.296079
     5  H    0.143186
     6  H    0.150140
     7  C   -0.336238
     8  H    0.140997
     9  H    0.154426
    10  C   -0.077091
    11  H    0.120652
    12  C   -0.077092
    13  H    0.120644
    14  C   -0.336258
    15  H    0.141016
    16  H    0.154469
 Sum of Mulliken charges =  -0.00000
 Mulliken charges with hydrogens summed into heavy atoms:
               1
     1  C   -0.002772
     4  C   -0.002752
     7  C   -0.040815
    10  C    0.043560
    12  C    0.043551
    14  C   -0.040773
 Electronic spatial extent (au):  <R**2>=            620.1943
 Charge=             -0.0000 electrons
 Dipole moment (field-independent basis, Debye):
    X=             -0.2921    Y=              0.0090    Z=              0.0074  Tot=              0.2923
 Quadrupole moment (field-independent basis, Debye-Ang):
   XX=            -41.1035   YY=            -35.4611   ZZ=            -36.6278
   XY=              0.1780   XZ=             -2.8076   YZ=              0.0886
 Traceless Quadrupole moment (field-independent basis, Debye-Ang):
   XX=             -3.3727   YY=              2.2697   ZZ=              1.1030
   XY=              0.1780   XZ=             -2.8076   YZ=              0.0886
 Octapole moment (field-independent basis, Debye-Ang**2):
  XXX=              5.2109  YYY=              0.0283  ZZZ=             -0.4123  XYY=             -0.3830
  XXY=             -0.1982  XXZ=             -1.6797  XZZ=             -0.0826  YZZ=              0.0080
  YYZ=             -1.2740  XYZ=              0.0143
 Hexadecapole moment (field-independent basis, Debye-Ang**3):
 XXXX=           -438.5539 YYYY=           -313.0763 ZZZZ=           -103.9486 XXXY=              2.1085
 XXXZ=            -17.6239 YYYX=              1.8230 YYYZ=              0.6690 ZZZX=             -3.6796
 ZZZY=              0.3933 XXYY=           -123.7275 XXZZ=            -84.0699 YYZZ=            -72.2907
 XXYZ=              0.3731 YYXZ=             -4.4887 ZZXY=              0.3805
 N-N= 2.234541833713D+02 E-N=-9.891409990574D+02  KE= 2.322408598583D+02
  Exact polarizability:       0.000       0.000       0.000       0.000       0.000       0.000
 Approx polarizability:     120.376       0.542     138.218     -15.840       0.369      75.056
 No NMR shielding tensors so no spin-rotation constants.
 Leave Link  601 at Thu Nov 10 12:59:32 2022, MaxMem=  8053063680 cpu:               1.9 elap:               0.2
 (Enter /project/chenjingdan/g16/l701.exe)
 ... and contract with generalized density number  0.
 Compute integral first derivatives.
 R6Disp: Adding Grimme-D3(BJ) dispersion energy 1st derivatives to the gradient.
 Leave Link  701 at Thu Nov 10 12:59:32 2022, MaxMem=  8053063680 cpu:               3.3 elap:               0.2
 (Enter /project/chenjingdan/g16/l702.exe)
 L702 exits ... SP integral derivatives will be done elsewhere.
 Leave Link  702 at Thu Nov 10 12:59:32 2022, MaxMem=  8053063680 cpu:               0.3 elap:               0.0
 (Enter /project/chenjingdan/g16/l703.exe)
 Integral derivatives from FoFJK, PRISM(SPDF).
 Compute integral first derivatives, UseDBF=F ICtDFT=           0.
 Calling FoFJK, ICntrl=      2127 FMM=F ISym2X=0 I1Cent= 0 IOpClX= 0 NMat=1 NMatS=1 NMatT=0.
 FoFJK:  IHMeth= 1 ICntrl=    2127 DoSepK=F KAlg= 0 I1Cent=           0 FoldK=F
 IRaf=         0 NMat=       1 IRICut=       1 DoRegI=T DoRafI=F ISym2E= 0 IDoP0=0 IntGTp=1.
 FoFCou: FMM=F IPFlag=           0 FMFlag=      100000 FMFlg1=         800
         NFxFlg=           0 DoJE=F BraDBF=F KetDBF=F FulRan=T
         wScrn=  0.000000 ICntrl=      2127 IOpCl=  0 I1Cent=           0 NGrid=           0
         NMat0=    1 NMatS0=      1 NMatT0=    0 NMatD0=    1 NMtDS0=    0 NMtDT0=    0
 Symmetry not used in FoFCou.
 Leave Link  703 at Thu Nov 10 12:59:33 2022, MaxMem=  8053063680 cpu:               9.4 elap:               0.6
 (Enter /project/chenjingdan/g16/l716.exe)
 Dipole        =-1.14921086D-01 3.52823001D-03 2.92433301D-03
 Polarizability= 0.00000000D+00 0.00000000D+00 0.00000000D+00
                 0.00000000D+00 0.00000000D+00 0.00000000D+00
 -------------------------------------------------------------------
 Center     Atomic                   Forces (Hartrees/Bohr)
 Number     Number              X              Y              Z
 -------------------------------------------------------------------
      1        6          -0.005854636    0.000752422   -0.001907915
      2        1           0.000002787   -0.000283638    0.000402643
      3        1           0.000159692   -0.000258321   -0.000293010
      4        6          -0.005924267   -0.000368982   -0.001923118
      5        1           0.000198055    0.000247449   -0.000297163
      6        1           0.000001993    0.000295319    0.000404667
      7        6           0.004817261    0.001701117    0.002553082
      8        1           0.000401933    0.000134026    0.000101279
      9        1           0.000109875    0.000273530   -0.000691452
     10        6           0.000498737    0.000604096   -0.000158776
     11        1          -0.000039007   -0.000030365   -0.000019242
     12        6           0.000421647   -0.000665939   -0.000128638
     13        1          -0.000039462    0.000029374   -0.000018416
     14        6           0.004751147   -0.001984021    0.002559990
     15        1           0.000391179   -0.000153667    0.000106128
     16        1           0.000103067   -0.000292400   -0.000690058
 -------------------------------------------------------------------
 Cartesian Forces:  Max     0.005924267 RMS     0.001748532
 Leave Link  716 at Thu Nov 10 12:59:33 2022, MaxMem=  8053063680 cpu:               0.3 elap:               0.0
 (Enter /project/chenjingdan/g16/l123.exe)
 IRC-IRC-IRC-IRC-IRC-IRC-IRC-IRC-IRC-IRC-IRC-IRC-IRC-IRC-IRC-IRC-IRC-IRC
 Pt  1 Step number   1 out of a maximum of  20
 Point Number:   1          Path Number:   1
                    CURRENT STRUCTURE
                Cartesian Coordinates (Ang):                
 ---------------------------------------------------------------------
 Center     Atomic                     Coordinates (Angstroms)
 Number     Number                        X           Y           Z
 ---------------------------------------------------------------------
      1          6                   -1.610951    0.735632   -0.226981
      2          1                   -1.444199    1.283212   -1.147706
      3          1                   -2.046482    1.308091    0.587131
      4          6                   -1.654989   -0.631075   -0.223620
      5          1                   -2.126994   -1.170190    0.592954
      6          1                   -1.524106   -1.192694   -1.141703
      7          6                    0.500301    1.429733    0.500962
      8          1                    0.468297    2.509738    0.388298
      9          1                    0.128358    1.055203    1.447597
     10          6                    1.310393    0.666168   -0.296748
     11          1                    1.853772    1.150893   -1.106129
     12          6                    1.264041   -0.751273   -0.293196
     13          1                    1.774381   -1.274500   -1.100101
     14          6                    0.405712   -1.456228    0.508147
     15          1                    0.303347   -2.532419    0.400982
     16          1                    0.059541   -1.053476    1.452992
 ---------------------------------------------------------------------
   CHANGE IN THE REACTION COORDINATE =    0.43099
   NET REACTION COORDINATE UP TO THIS POINT =    0.43099
  # OF POINTS ALONG THE PATH =   1
  # OF STEPS =   1

 Calculating another point on the path.
 Point Number  2 in FORWARD path direction.
 Using LQA Reaction Path Following.
   LQA: T_Est iteration completed in    3 iterations.
 IRC-IRC-IRC-IRC-IRC-IRC-IRC-IRC-IRC-IRC-IRC-IRC-IRC-IRC-IRC-IRC-IRC-IRC
 Leave Link  123 at Thu Nov 10 12:59:33 2022, MaxMem=  8053063680 cpu:               0.5 elap:               0.1
 (Enter /project/chenjingdan/g16/l202.exe)
                          Input orientation:                          
 ---------------------------------------------------------------------
 Center     Atomic      Atomic             Coordinates (Angstroms)
 Number     Number       Type             X           Y           Z
 ---------------------------------------------------------------------
      1          6           0       -1.641818    0.730567   -0.236679
      2          1           0       -1.437772    1.284801   -1.146392
      3          1           0       -2.044369    1.310540    0.589485
      4          6           0       -1.685554   -0.623992   -0.233395
      5          1           0       -2.124837   -1.172752    0.595404
      6          1           0       -1.518046   -1.194581   -1.140444
      7          6           0        0.528692    1.438843    0.509970
      8          1           0        0.492044    2.518082    0.394510
      9          1           0        0.118292    1.055756    1.437326
     10          6           0        1.311644    0.670931   -0.295621
     11          1           0        1.850080    1.150387   -1.111457
     12          6           0        1.264933   -0.756140   -0.292044
     13          1           0        1.770597   -1.273843   -1.105473
     14          6           0        0.433560   -1.467150    0.517273
     15          1           0        0.326496   -2.542262    0.407268
     16          1           0        0.049741   -1.053491    1.442877
 ---------------------------------------------------------------------
                    Distance matrix (angstroms):
                    1          2          3          4          5
     1  C    0.000000
     2  H    1.084615   0.000000
     3  H    1.086721   1.838992   0.000000
     4  C    1.355268   2.130364   2.132673   0.000000
     5  H    2.132672   3.089576   2.484603   1.086745   0.000000
     6  H    2.130330   2.480689   3.089547   1.084606   1.838978
     7  C    2.402135   2.575702   2.577485   3.116210   3.724103
     8  H    2.854291   2.760353   2.815948   3.874123   4.528872
     9  H    2.450720   3.024797   2.336847   2.977704   3.272111
    10  C    2.954652   2.942777   3.529212   3.265562   4.000312
    11  H    3.624202   3.290784   4.252715   4.052175   4.910225
    12  C    3.265358   3.492845   3.999968   2.954028   3.528692
    13  H    4.051795   4.103897   4.909775   3.623232   4.251777
    14  C    3.115381   3.720605   3.723025   2.401055   2.576465
    15  H    3.873027   4.491427   4.527504   2.852816   2.814247
    16  H    2.977439   3.792706   3.271425   2.450634   2.336926
                    6          7          8          9         10
     6  H    0.000000
     7  C    3.721280   0.000000
     8  H    4.492261   1.086015   0.000000
     9  H    3.792956   1.084054   1.834544   0.000000
    10  C    3.492994   1.360764   2.135413   2.138991   0.000000
    11  H    4.104143   2.111468   2.445974   3.082911   1.088752
    12  C    2.942276   2.450149   3.433547   2.754719   1.427840
    13  H    3.289785   3.392736   4.273564   3.824000   2.156072
    14  C    2.575090   2.907559   3.987551   2.703876   2.450147
    15  H    2.759347   3.987560   5.063068   3.748347   3.433538
    16  H    3.025130   2.703968   3.748445   2.110368   2.754706
                   11         12         13         14         15
    11  H    0.000000
    12  C    2.156079   0.000000
    13  H    2.425540   1.088752   0.000000
    14  C    3.392755   1.360776   2.111479   0.000000
    15  H    4.273581   2.135401   2.445956   1.086016   0.000000
    16  H    3.823993   2.138940   3.082855   1.084054   1.834535
                   16
    16  H    0.000000
 Symmetry turned off by external request.
 Stoichiometry    C6H10
 Framework group  C1[X(C6H10)]
 Deg. of freedom    42
 Full point group                 C1      NOp   1
 Rotational constants (GHZ):           4.2739292           3.3220842           2.1924458
 Leave Link  202 at Thu Nov 10 12:59:33 2022, MaxMem=  8053063680 cpu:               0.1 elap:               0.0
 (Enter /project/chenjingdan/g16/l301.exe)
 Standard basis: 6-31G(d) (6D, 7F)
 Ernie: Thresh=  0.10000D-02 Tol=  0.10000D-05 Strict=F.
   110 basis functions,   208 primitive gaussians,   110 cartesian basis functions
    23 alpha electrons       23 beta electrons
       nuclear repulsion energy       222.5825144014 Hartrees.
 IExCor=  402 DFT=T Ex+Corr=B3LYP ExCW=0 ScaHFX=  0.200000
 ScaDFX=  0.800000  0.720000  1.000000  0.810000 ScalE2=  1.000000  1.000000
 IRadAn=      5 IRanWt=     -1 IRanGd=            0 ICorTp=0 IEmpDi=141
 NAtoms=   16 NActive=   16 NUniq=   16 SFac= 1.00D+00 NAtFMM=   60 NAOKFM=F Big=F
 Integral buffers will be    131072 words long.
 Raffenetti 2 integral format.
 Two-electron integral symmetry is turned off.
 R6Disp:  Grimme-D3(BJ) Dispersion energy=       -0.0252631395 Hartrees.
 Nuclear repulsion after empirical dispersion term =      222.5572512619 Hartrees.
 Leave Link  301 at Thu Nov 10 12:59:33 2022, MaxMem=  8053063680 cpu:               0.9 elap:               0.1
 (Enter /project/chenjingdan/g16/l302.exe)
 NPDir=0 NMtPBC=     1 NCelOv=     1 NCel=       1 NClECP=     1 NCelD=      1
         NCelK=      1 NCelE2=     1 NClLst=     1 CellRange=     0.0.
 One-electron integrals computed using PRISM.
 NBasis=   110 RedAO= T EigKep=  2.31D-03  NBF=   110
 NBsUse=   110 1.00D-06 EigRej= -1.00D+00 NBFU=   110
 Precomputing XC quadrature grid using
 IXCGrd= 4 IRadAn=           5 IRanWt=          -1 IRanGd=           0 AccXCQ= 0.00D+00.
 Generated NRdTot=       0 NPtTot=           0 NUsed=           0 NTot=          32
 NSgBfM=   110   110   110   110   110 MxSgAt=    16 MxSgA2=    16.
 Leave Link  302 at Thu Nov 10 12:59:33 2022, MaxMem=  8053063680 cpu:               2.1 elap:               0.2
 (Enter /project/chenjingdan/g16/l303.exe)
 DipDrv:  MaxL=1.
 Leave Link  303 at Thu Nov 10 12:59:33 2022, MaxMem=  8053063680 cpu:               0.3 elap:               0.0
 (Enter /project/chenjingdan/g16/l401.exe)
 Initial guess from the checkpoint file:  "rough_irc_DA.chk"
 B after Tr=     0.000739   -0.000025   -0.000233
         Rot=    1.000000    0.000001   -0.000047    0.000004 Ang=   0.01 deg.
 Guess basis will be translated and rotated to current coordinates.
 JPrj=2 DoOrth=T DoCkMO=T.
 Generating alternative initial guess.
 ExpMin= 1.61D-01 ExpMax= 3.05D+03 ExpMxC= 4.57D+02 IAcc=3 IRadAn=         5 AccDes= 0.00D+00
 Harris functional with IExCor=  402 and IRadAn=       5 diagonalized for initial guess.
 HarFok:  IExCor=  402 AccDes= 0.00D+00 IRadAn=         5 IDoV= 1 UseB2=F ITyADJ=14
 ICtDFT=  3500011 ScaDFX=  1.000000  1.000000  1.000000  1.000000
 FoFCou: FMM=F IPFlag=           0 FMFlag=      100000 FMFlg1=           0
         NFxFlg=           0 DoJE=T BraDBF=F KetDBF=T FulRan=T
         wScrn=  0.000000 ICntrl=       500 IOpCl=  0 I1Cent=   200000004 NGrid=           0
         NMat0=    1 NMatS0=      1 NMatT0=    0 NMatD0=    1 NMtDS0=    0 NMtDT0=    0
 Symmetry not used in FoFCou.
 Harris En= -234.646102500396    
 Leave Link  401 at Thu Nov 10 12:59:34 2022, MaxMem=  8053063680 cpu:               4.8 elap:               0.3
 (Enter /project/chenjingdan/g16/l502.exe)
 Two-electron integral symmetry not used.
 Closed shell SCF:
 Using DIIS extrapolation, IDIIS=  1040.
 NGot=  8053063680 LenX=  8053036108 LenY=  8053023567
 Requested convergence on RMS density matrix=1.00D-08 within 128 cycles.
 Requested convergence on MAX density matrix=1.00D-06.
 Requested convergence on             energy=1.00D-06.
 No special actions if energy rises.
 Fock matrices will be formed incrementally for  20 cycles.
 Integral accuracy reduced to 1.0D-05 until final iterations.

 Cycle   1  Pass 0  IDiag  1:
 FoFJK:  IHMeth= 1 ICntrl=       0 DoSepK=F KAlg= 0 I1Cent=           0 FoldK=F
 IRaf= 990000000 NMat=       1 IRICut=       1 DoRegI=T DoRafI=F ISym2E= 0 IDoP0=0 IntGTp=1.
 FoFCou: FMM=F IPFlag=           0 FMFlag=      100000 FMFlg1=           0
         NFxFlg=           0 DoJE=F BraDBF=F KetDBF=F FulRan=T
         wScrn=  0.000000 ICntrl=         0 IOpCl=  0 I1Cent=           0 NGrid=           0
         NMat0=    1 NMatS0=      1 NMatT0=    0 NMatD0=    1 NMtDS0=    0 NMtDT0=    0
 Symmetry not used in FoFCou.
 E= -234.569822966208    
 DIIS: error= 3.28D-03 at cycle   1 NSaved=   1.
 NSaved= 1 IEnMin= 1 EnMin= -234.569822966208     IErMin= 1 ErrMin= 3.28D-03
 ErrMax= 3.28D-03  0.00D+00 EMaxC= 1.00D-01 BMatC= 6.81D-04 BMatP= 6.81D-04
 IDIUse=3 WtCom= 9.67D-01 WtEn= 3.28D-02
 Coeff-Com:  0.100D+01
 Coeff-En:   0.100D+01
 Coeff:      0.100D+01
 Gap=     1.926 Goal=   None    Shift=    0.000
 GapD=    1.926 DampG=2.000 DampE=1.000 DampFc=2.0000 IDamp=-1.
 RMSDP=5.49D-04 MaxDP=7.83D-03              OVMax= 3.45D-02

 Cycle   2  Pass 0  IDiag  1:
 RMSU=  5.49D-04    CP:  1.00D+00
 E= -234.571902461405     Delta-E=       -0.002079495197 Rises=F Damp=F
 DIIS: error= 1.02D-03 at cycle   2 NSaved=   2.
 NSaved= 2 IEnMin= 2 EnMin= -234.571902461405     IErMin= 2 ErrMin= 1.02D-03
 ErrMax= 1.02D-03  0.00D+00 EMaxC= 1.00D-01 BMatC= 6.37D-05 BMatP= 6.81D-04
 IDIUse=3 WtCom= 9.90D-01 WtEn= 1.02D-02
 Coeff-Com:  0.599D-01 0.940D+00
 Coeff-En:   0.000D+00 0.100D+01
 Coeff:      0.593D-01 0.941D+00
 Gap=     0.205 Goal=   None    Shift=    0.000
 RMSDP=1.87D-04 MaxDP=1.87D-03 DE=-2.08D-03 OVMax= 9.52D-03

 Cycle   3  Pass 0  IDiag  1:
 RMSU=  1.67D-04    CP:  9.99D-01  1.15D+00
 E= -234.571942041823     Delta-E=       -0.000039580418 Rises=F Damp=F
 DIIS: error= 8.38D-04 at cycle   3 NSaved=   3.
 NSaved= 3 IEnMin= 3 EnMin= -234.571942041823     IErMin= 3 ErrMin= 8.38D-04
 ErrMax= 8.38D-04  0.00D+00 EMaxC= 1.00D-01 BMatC= 6.89D-05 BMatP= 6.37D-05
 IDIUse=3 WtCom= 9.92D-01 WtEn= 8.38D-03
 Coeff-Com: -0.436D-01 0.529D+00 0.515D+00
 Coeff-En:   0.000D+00 0.343D+00 0.657D+00
 Coeff:     -0.432D-01 0.527D+00 0.516D+00
 Gap=     0.205 Goal=   None    Shift=    0.000
 RMSDP=9.61D-05 MaxDP=1.25D-03 DE=-3.96D-05 OVMax= 5.90D-03

 Cycle   4  Pass 0  IDiag  1:
 RMSU=  5.62D-05    CP:  1.00D+00  1.21D+00  5.72D-01
 E= -234.572013629133     Delta-E=       -0.000071587310 Rises=F Damp=F
 DIIS: error= 3.35D-04 at cycle   4 NSaved=   4.
 NSaved= 4 IEnMin= 4 EnMin= -234.572013629133     IErMin= 4 ErrMin= 3.35D-04
 ErrMax= 3.35D-04  0.00D+00 EMaxC= 1.00D-01 BMatC= 7.85D-06 BMatP= 6.37D-05
 IDIUse=3 WtCom= 9.97D-01 WtEn= 3.35D-03
 Coeff-Com: -0.290D-01 0.198D+00 0.306D+00 0.525D+00
 Coeff-En:   0.000D+00 0.000D+00 0.318D-01 0.968D+00
 Coeff:     -0.290D-01 0.197D+00 0.305D+00 0.527D+00
 Gap=     0.205 Goal=   None    Shift=    0.000
 RMSDP=3.18D-05 MaxDP=5.35D-04 DE=-7.16D-05 OVMax= 1.82D-03

 Cycle   5  Pass 0  IDiag  1:
 RMSU=  2.37D-05    CP:  1.00D+00  1.22D+00  6.45D-01  6.99D-01
 E= -234.572022440749     Delta-E=       -0.000008811617 Rises=F Damp=F
 DIIS: error= 6.88D-05 at cycle   5 NSaved=   5.
 NSaved= 5 IEnMin= 5 EnMin= -234.572022440749     IErMin= 5 ErrMin= 6.88D-05
 ErrMax= 6.88D-05  0.00D+00 EMaxC= 1.00D-01 BMatC= 5.11D-07 BMatP= 7.85D-06
 IDIUse=1 WtCom= 1.00D+00 WtEn= 0.00D+00
 Coeff-Com: -0.520D-02-0.334D-02 0.635D-01 0.242D+00 0.703D+00
 Coeff:     -0.520D-02-0.334D-02 0.635D-01 0.242D+00 0.703D+00
 Gap=     0.205 Goal=   None    Shift=    0.000
 RMSDP=9.93D-06 MaxDP=1.16D-04 DE=-8.81D-06 OVMax= 5.14D-04

 Initial convergence to 1.0D-05 achieved.  Increase integral accuracy.
 Cycle   6  Pass 1  IDiag  1:
 E= -234.572040725223     Delta-E=       -0.000018284474 Rises=F Damp=F
 DIIS: error= 1.35D-05 at cycle   1 NSaved=   1.
 NSaved= 1 IEnMin= 1 EnMin= -234.572040725223     IErMin= 1 ErrMin= 1.35D-05
 ErrMax= 1.35D-05  0.00D+00 EMaxC= 1.00D-01 BMatC= 1.70D-08 BMatP= 1.70D-08
 IDIUse=1 WtCom= 1.00D+00 WtEn= 0.00D+00
 Coeff-Com:  0.100D+01
 Coeff:      0.100D+01
 Gap=     0.205 Goal=   None    Shift=    0.000
 RMSDP=9.93D-06 MaxDP=1.16D-04 DE=-1.83D-05 OVMax= 1.25D-04

 Cycle   7  Pass 1  IDiag  1:
 RMSU=  2.85D-06    CP:  1.00D+00
 E= -234.572040731811     Delta-E=       -0.000000006587 Rises=F Damp=F
 DIIS: error= 1.50D-05 at cycle   2 NSaved=   2.
 NSaved= 2 IEnMin= 2 EnMin= -234.572040731811     IErMin= 1 ErrMin= 1.35D-05
 ErrMax= 1.50D-05  0.00D+00 EMaxC= 1.00D-01 BMatC= 2.00D-08 BMatP= 1.70D-08
 IDIUse=1 WtCom= 1.00D+00 WtEn= 0.00D+00
 Coeff-Com:  0.523D+00 0.477D+00
 Coeff:      0.523D+00 0.477D+00
 Gap=     0.205 Goal=   None    Shift=    0.000
 RMSDP=1.53D-06 MaxDP=2.67D-05 DE=-6.59D-09 OVMax= 6.26D-05

 Cycle   8  Pass 1  IDiag  1:
 RMSU=  1.21D-06    CP:  1.00D+00  6.72D-01
 E= -234.572040750731     Delta-E=       -0.000000018921 Rises=F Damp=F
 DIIS: error= 4.37D-06 at cycle   3 NSaved=   3.
 NSaved= 3 IEnMin= 3 EnMin= -234.572040750731     IErMin= 3 ErrMin= 4.37D-06
 ErrMax= 4.37D-06  0.00D+00 EMaxC= 1.00D-01 BMatC= 2.15D-09 BMatP= 1.70D-08
 IDIUse=1 WtCom= 1.00D+00 WtEn= 0.00D+00
 Coeff-Com:  0.135D+00 0.264D+00 0.600D+00
 Coeff:      0.135D+00 0.264D+00 0.600D+00
 Gap=     0.205 Goal=   None    Shift=    0.000
 RMSDP=5.25D-07 MaxDP=7.51D-06 DE=-1.89D-08 OVMax= 3.11D-05

 Cycle   9  Pass 1  IDiag  1:
 RMSU=  4.05D-07    CP:  1.00D+00  7.58D-01  8.12D-01
 E= -234.572040752973     Delta-E=       -0.000000002241 Rises=F Damp=F
 DIIS: error= 1.84D-06 at cycle   4 NSaved=   4.
 NSaved= 4 IEnMin= 4 EnMin= -234.572040752973     IErMin= 4 ErrMin= 1.84D-06
 ErrMax= 1.84D-06  0.00D+00 EMaxC= 1.00D-01 BMatC= 1.93D-10 BMatP= 2.15D-09
 IDIUse=1 WtCom= 1.00D+00 WtEn= 0.00D+00
 Coeff-Com:  0.802D-02 0.788D-01 0.291D+00 0.622D+00
 Coeff:      0.802D-02 0.788D-01 0.291D+00 0.622D+00
 Gap=     0.205 Goal=   None    Shift=    0.000
 RMSDP=1.96D-07 MaxDP=3.02D-06 DE=-2.24D-09 OVMax= 1.50D-05

 Cycle  10  Pass 1  IDiag  1:
 RMSU=  1.28D-07    CP:  1.00D+00  7.77D-01  8.90D-01  7.47D-01
 E= -234.572040753220     Delta-E=       -0.000000000248 Rises=F Damp=F
 DIIS: error= 8.00D-07 at cycle   5 NSaved=   5.
 NSaved= 5 IEnMin= 5 EnMin= -234.572040753220     IErMin= 5 ErrMin= 8.00D-07
 ErrMax= 8.00D-07  0.00D+00 EMaxC= 1.00D-01 BMatC= 3.28D-11 BMatP= 1.93D-10
 IDIUse=1 WtCom= 1.00D+00 WtEn= 0.00D+00
 Coeff-Com: -0.225D-01-0.430D-02 0.450D-01 0.327D+00 0.655D+00
 Coeff:     -0.225D-01-0.430D-02 0.450D-01 0.327D+00 0.655D+00
 Gap=     0.205 Goal=   None    Shift=    0.000
 RMSDP=7.29D-08 MaxDP=9.04D-07 DE=-2.48D-10 OVMax= 4.74D-06

 Cycle  11  Pass 1  IDiag  1:
 RMSU=  4.05D-08    CP:  1.00D+00  7.89D-01  9.04D-01  8.38D-01  7.75D-01
 E= -234.572040753264     Delta-E=       -0.000000000044 Rises=F Damp=F
 DIIS: error= 9.83D-08 at cycle   6 NSaved=   6.
 NSaved= 6 IEnMin= 6 EnMin= -234.572040753264     IErMin= 6 ErrMin= 9.83D-08
 ErrMax= 9.83D-08  0.00D+00 EMaxC= 1.00D-01 BMatC= 1.46D-12 BMatP= 3.28D-11
 IDIUse=1 WtCom= 1.00D+00 WtEn= 0.00D+00
 Coeff-Com: -0.113D-01-0.730D-02 0.284D-03 0.111D+00 0.284D+00 0.624D+00
 Coeff:     -0.113D-01-0.730D-02 0.284D-03 0.111D+00 0.284D+00 0.624D+00
 Gap=     0.205 Goal=   None    Shift=    0.000
 RMSDP=1.77D-08 MaxDP=2.29D-07 DE=-4.35D-11 OVMax= 9.03D-07

 Cycle  12  Pass 1  IDiag  1:
 RMSU=  1.14D-08    CP:  1.00D+00  7.91D-01  9.09D-01  8.50D-01  8.07D-01
                    CP:  7.99D-01
 E= -234.572040753266     Delta-E=       -0.000000000002 Rises=F Damp=F
 DIIS: error= 3.18D-08 at cycle   7 NSaved=   7.
 NSaved= 7 IEnMin= 7 EnMin= -234.572040753266     IErMin= 7 ErrMin= 3.18D-08
 ErrMax= 3.18D-08  0.00D+00 EMaxC= 1.00D-01 BMatC= 1.18D-13 BMatP= 1.46D-12
 IDIUse=1 WtCom= 1.00D+00 WtEn= 0.00D+00
 Coeff-Com: -0.105D-02-0.173D-02-0.550D-02-0.753D-03 0.122D-01 0.226D+00
 Coeff-Com:  0.771D+00
 Coeff:     -0.105D-02-0.173D-02-0.550D-02-0.753D-03 0.122D-01 0.226D+00
 Coeff:      0.771D+00
 Gap=     0.205 Goal=   None    Shift=    0.000
 RMSDP=5.43D-09 MaxDP=8.96D-08 DE=-2.33D-12 OVMax= 3.13D-07

 SCF Done:  E(RB3LYP) =  -234.572040753     A.U. after   12 cycles
            NFock= 12  Conv=0.54D-08     -V/T= 2.0099
 KE= 2.322801719065D+02 PE=-9.873709096600D+02 EE= 2.979614457384D+02
 Leave Link  502 at Thu Nov 10 12:59:36 2022, MaxMem=  8053063680 cpu:              33.5 elap:               2.1
 (Enter /project/chenjingdan/g16/l801.exe)
 DoSCS=F DFT=T ScalE2(SS,OS)=  1.000000  1.000000
 Range of M.O.s used for correlation:     1   110
 NBasis=   110 NAE=    23 NBE=    23 NFC=     0 NFV=     0
 NROrb=    110 NOA=    23 NOB=    23 NVA=    87 NVB=    87
 Leave Link  801 at Thu Nov 10 12:59:36 2022, MaxMem=  8053063680 cpu:               0.3 elap:               0.0
 (Enter /project/chenjingdan/g16/l1101.exe)
 Leave Link 1101 at Thu Nov 10 12:59:36 2022, MaxMem=  8053063680 cpu:               0.3 elap:               0.0
 (Enter /project/chenjingdan/g16/l1102.exe)
 Symmetrizing basis deriv contribution to polar:
 IMax=3 JMax=2 DiffMx= 0.00D+00
 Leave Link 1102 at Thu Nov 10 12:59:36 2022, MaxMem=  8053063680 cpu:               0.3 elap:               0.0
 (Enter /project/chenjingdan/g16/l1110.exe)
 Leave Link 1110 at Thu Nov 10 12:59:36 2022, MaxMem=  8053063680 cpu:               0.3 elap:               0.0
 (Enter /project/chenjingdan/g16/l1002.exe)
 Minotr:  Closed shell wavefunction.
 Leave Link 1002 at Thu Nov 10 12:59:36 2022, MaxMem=  8053063680 cpu:               0.3 elap:               0.0
 (Enter /project/chenjingdan/g16/l701.exe)
 ... and contract with generalized density number  0.
 Compute integral first derivatives.
 R6Disp: Adding Grimme-D3(BJ) dispersion energy 1st derivatives to the gradient.
 Leave Link  701 at Thu Nov 10 12:59:36 2022, MaxMem=  8053063680 cpu:               1.8 elap:               0.1
 (Enter /project/chenjingdan/g16/l702.exe)
 L702 exits ... SP integral derivatives will be done elsewhere.
 Leave Link  702 at Thu Nov 10 12:59:36 2022, MaxMem=  8053063680 cpu:               0.3 elap:               0.0
 (Enter /project/chenjingdan/g16/l703.exe)
 Integral derivatives from FoFJK, PRISM(SPDF).
 Compute integral first derivatives, UseDBF=F ICtDFT=           0.
 Calling FoFJK, ICntrl=      2127 FMM=F ISym2X=0 I1Cent= 0 IOpClX= 0 NMat=1 NMatS=1 NMatT=0.
 FoFJK:  IHMeth= 1 ICntrl=    2127 DoSepK=F KAlg= 0 I1Cent=           0 FoldK=F
 IRaf=         0 NMat=       1 IRICut=       1 DoRegI=T DoRafI=F ISym2E= 0 IDoP0=0 IntGTp=1.
 FoFCou: FMM=F IPFlag=           0 FMFlag=      100000 FMFlg1=         800
         NFxFlg=           0 DoJE=F BraDBF=F KetDBF=F FulRan=T
         wScrn=  0.000000 ICntrl=      2127 IOpCl=  0 I1Cent=           0 NGrid=           0
         NMat0=    1 NMatS0=      1 NMatT0=    0 NMatD0=    1 NMtDS0=    0 NMtDT0=    0
 Symmetry not used in FoFCou.
 Leave Link  703 at Thu Nov 10 12:59:37 2022, MaxMem=  8053063680 cpu:              10.1 elap:               0.7
 (Enter /project/chenjingdan/g16/l716.exe)
 Dipole        =-7.71086562D-02 2.29099021D-03 6.03742176D-04
 Polarizability= 0.00000000D+00 0.00000000D+00 0.00000000D+00
                 0.00000000D+00 0.00000000D+00 0.00000000D+00
 -------------------------------------------------------------------
 Center     Atomic                   Forces (Hartrees/Bohr)
 Number     Number              X              Y              Z
 -------------------------------------------------------------------
      1        6          -0.008997516    0.001959836   -0.002981462
      2        1          -0.000201746   -0.000511733    0.000651796
      3        1           0.000055589   -0.000424292   -0.000515033
      4        6          -0.009127750   -0.001377488   -0.002965582
      5        1           0.000087008    0.000425563   -0.000528002
      6        1          -0.000166936    0.000524133    0.000641854
      7        6           0.007172166    0.002725011    0.004116045
      8        1           0.000748832    0.000251283    0.000219383
      9        1           0.000360858    0.000545953   -0.001034936
     10        6           0.000967463    0.000486254   -0.000475312
     11        1           0.000060854   -0.000046235    0.000003055
     12        6           0.000928424   -0.000555357   -0.000478429
     13        1           0.000060754    0.000042036    0.000001779
     14        6           0.006998757   -0.003170641    0.004143266
     15        1           0.000730295   -0.000298516    0.000222167
     16        1           0.000322948   -0.000575805   -0.001020588
 -------------------------------------------------------------------
 Cartesian Forces:  Max     0.009127750 RMS     0.002697184
 Leave Link  716 at Thu Nov 10 12:59:37 2022, MaxMem=  8053063680 cpu:               0.3 elap:               0.0
 (Enter /project/chenjingdan/g16/l123.exe)
 IRC-IRC-IRC-IRC-IRC-IRC-IRC-IRC-IRC-IRC-IRC-IRC-IRC-IRC-IRC-IRC-IRC-IRC
 Pt  2 Step number   1 out of a maximum of  20
 Point Number:   2          Path Number:   1
                    CURRENT STRUCTURE
                Cartesian Coordinates (Ang):                
 ---------------------------------------------------------------------
 Center     Atomic                     Coordinates (Angstroms)
 Number     Number                        X           Y           Z
 ---------------------------------------------------------------------
      1          6                   -1.641818    0.730567   -0.236679
      2          1                   -1.437772    1.284801   -1.146392
      3          1                   -2.044369    1.310540    0.589485
      4          6                   -1.685554   -0.623992   -0.233395
      5          1                   -2.124837   -1.172752    0.595404
      6          1                   -1.518046   -1.194581   -1.140444
      7          6                    0.528692    1.438843    0.509970
      8          1                    0.492044    2.518082    0.394510
      9          1                    0.118292    1.055756    1.437326
     10          6                    1.311644    0.670931   -0.295621
     11          1                    1.850080    1.150387   -1.111457
     12          6                    1.264933   -0.756140   -0.292044
     13          1                    1.770597   -1.273843   -1.105473
     14          6                    0.433560   -1.467150    0.517273
     15          1                    0.326496   -2.542262    0.407268
     16          1                    0.049741   -1.053491    1.442877
 ---------------------------------------------------------------------
   CHANGE IN THE REACTION COORDINATE =    0.43008
   NET REACTION COORDINATE UP TO THIS POINT =    0.86107
  # OF POINTS ALONG THE PATH =   2
  # OF STEPS =   1

 Calculating another point on the path.
 Point Number  3 in FORWARD path direction.
 Using LQA Reaction Path Following.
   LQA: T_Est iteration completed in    3 iterations.
 IRC-IRC-IRC-IRC-IRC-IRC-IRC-IRC-IRC-IRC-IRC-IRC-IRC-IRC-IRC-IRC-IRC-IRC
 Leave Link  123 at Thu Nov 10 12:59:37 2022, MaxMem=  8053063680 cpu:               0.5 elap:               0.1
 (Enter /project/chenjingdan/g16/l202.exe)
                          Input orientation:                          
 ---------------------------------------------------------------------
 Center     Atomic      Atomic             Coordinates (Angstroms)
 Number     Number       Type             X           Y           Z
 ---------------------------------------------------------------------
      1          6           0       -1.672967    0.728230   -0.246308
      2          1           0       -1.438085    1.285180   -1.146301
      3          1           0       -2.050282    1.311644    0.588554
      4          6           0       -1.716529   -0.619657   -0.243063
      5          1           0       -2.130830   -1.173441    0.594427
      6          1           0       -1.518379   -1.194897   -1.140396
      7          6           0        0.556289    1.448685    0.519615
      8          1           0        0.524019    2.527855    0.403560
      9          1           0        0.114203    1.060427    1.429084
     10          6           0        1.313724    0.674573   -0.295422
     11          1           0        1.851000    1.149617   -1.114521
     12          6           0        1.266743   -0.759914   -0.291833
     13          1           0        1.771448   -1.273167   -1.108595
     14          6           0        0.460494   -1.478732    0.527028
     15          1           0        0.357733   -2.554051    0.416368
     16          1           0        0.045472   -1.058015    1.434822
 ---------------------------------------------------------------------
                    Distance matrix (angstroms):
                    1          2          3          4          5
     1  C    0.000000
     2  H    1.084136   0.000000
     3  H    1.086155   1.839893   0.000000
     4  C    1.348594   2.126447   2.129061   0.000000
     5  H    2.129043   3.091092   2.486397   1.086145   0.000000
     6  H    2.126431   2.481384   3.091106   1.084145   1.839882
     7  C    2.464808   2.603755   2.611081   3.166294   3.755230
     8  H    2.913371   2.792161   2.853141   3.917270   4.558974
     9  H    2.472099   3.015414   2.335508   2.995052   3.275208
    10  C    2.987577   2.944366   3.536073   3.295483   4.008982
    11  H    3.653725   3.292031   4.259896   4.076399   4.916510
    12  C    3.295231   3.496945   4.008627   2.986965   3.535529
    13  H    4.075920   4.104591   4.916013   3.652698   4.258873
    14  C    3.165499   3.747512   3.754195   2.463834   2.610115
    15  H    3.916153   4.517366   4.557607   2.911922   2.851444
    16  H    2.994980   3.788628   3.274697   2.472266   2.335781
                    6          7          8          9         10
     6  H    0.000000
     7  C    3.748121   0.000000
     8  H    4.518194   1.085872   0.000000
     9  H    3.788673   1.083199   1.836572   0.000000
    10  C    3.497100   1.355449   2.132338   2.135804   0.000000
    11  H    4.104892   2.106209   2.442332   3.081289   1.088694
    12  C    2.943837   2.457865   3.441604   2.757453   1.435261
    13  H    3.290912   3.396491   4.276735   3.825171   2.159734
    14  C    2.603230   2.928993   4.008992   2.716790   2.457875
    15  H    2.791166   4.008987   5.084642   3.761562   3.441596
    16  H    3.015976   2.716999   3.761778   2.119565   2.757548
                   11         12         13         14         15
    11  H    0.000000
    12  C    2.159741   0.000000
    13  H    2.424097   1.088694   0.000000
    14  C    3.396529   1.355460   2.106210   0.000000
    15  H    4.276754   2.132317   2.442287   1.085872   0.000000
    16  H    3.825274   2.135815   3.081274   1.083205   1.836539
                   16
    16  H    0.000000
 Symmetry turned off by external request.
 Stoichiometry    C6H10
 Framework group  C1[X(C6H10)]
 Deg. of freedom    42
 Full point group                 C1      NOp   1
 Rotational constants (GHZ):           4.2324048           3.2428963           2.1517509
 Leave Link  202 at Thu Nov 10 12:59:37 2022, MaxMem=  8053063680 cpu:               0.1 elap:               0.0
 (Enter /project/chenjingdan/g16/l301.exe)
 Standard basis: 6-31G(d) (6D, 7F)
 Ernie: Thresh=  0.10000D-02 Tol=  0.10000D-05 Strict=F.
   110 basis functions,   208 primitive gaussians,   110 cartesian basis functions
    23 alpha electrons       23 beta electrons
       nuclear repulsion energy       221.5239874613 Hartrees.
 IExCor=  402 DFT=T Ex+Corr=B3LYP ExCW=0 ScaHFX=  0.200000
 ScaDFX=  0.800000  0.720000  1.000000  0.810000 ScalE2=  1.000000  1.000000
 IRadAn=      5 IRanWt=     -1 IRanGd=            0 ICorTp=0 IEmpDi=141
 NAtoms=   16 NActive=   16 NUniq=   16 SFac= 1.00D+00 NAtFMM=   60 NAOKFM=F Big=F
 Integral buffers will be    131072 words long.
 Raffenetti 2 integral format.
 Two-electron integral symmetry is turned off.
 R6Disp:  Grimme-D3(BJ) Dispersion energy=       -0.0250697806 Hartrees.
 Nuclear repulsion after empirical dispersion term =      221.4989176808 Hartrees.
 Leave Link  301 at Thu Nov 10 12:59:37 2022, MaxMem=  8053063680 cpu:               0.9 elap:               0.1
 (Enter /project/chenjingdan/g16/l302.exe)
 NPDir=0 NMtPBC=     1 NCelOv=     1 NCel=       1 NClECP=     1 NCelD=      1
         NCelK=      1 NCelE2=     1 NClLst=     1 CellRange=     0.0.
 One-electron integrals computed using PRISM.
 NBasis=   110 RedAO= T EigKep=  2.34D-03  NBF=   110
 NBsUse=   110 1.00D-06 EigRej= -1.00D+00 NBFU=   110
 Precomputing XC quadrature grid using
 IXCGrd= 4 IRadAn=           5 IRanWt=          -1 IRanGd=           0 AccXCQ= 0.00D+00.
 Generated NRdTot=       0 NPtTot=           0 NUsed=           0 NTot=          32
 NSgBfM=   110   110   110   110   110 MxSgAt=    16 MxSgA2=    16.
 Leave Link  302 at Thu Nov 10 12:59:37 2022, MaxMem=  8053063680 cpu:               2.2 elap:               0.2
 (Enter /project/chenjingdan/g16/l303.exe)
 DipDrv:  MaxL=1.
 Leave Link  303 at Thu Nov 10 12:59:37 2022, MaxMem=  8053063680 cpu:               0.3 elap:               0.0
 (Enter /project/chenjingdan/g16/l401.exe)
 Initial guess from the checkpoint file:  "rough_irc_DA.chk"
 B after Tr=     0.000898   -0.000031   -0.000126
         Rot=    1.000000    0.000000   -0.000018    0.000003 Ang=   0.00 deg.
 Guess basis will be translated and rotated to current coordinates.
 JPrj=2 DoOrth=T DoCkMO=T.
 Generating alternative initial guess.
 ExpMin= 1.61D-01 ExpMax= 3.05D+03 ExpMxC= 4.57D+02 IAcc=3 IRadAn=         5 AccDes= 0.00D+00
 Harris functional with IExCor=  402 and IRadAn=       5 diagonalized for initial guess.
 HarFok:  IExCor=  402 AccDes= 0.00D+00 IRadAn=         5 IDoV= 1 UseB2=F ITyADJ=14
 ICtDFT=  3500011 ScaDFX=  1.000000  1.000000  1.000000  1.000000
 FoFCou: FMM=F IPFlag=           0 FMFlag=      100000 FMFlg1=           0
         NFxFlg=           0 DoJE=T BraDBF=F KetDBF=T FulRan=T
         wScrn=  0.000000 ICntrl=       500 IOpCl=  0 I1Cent=   200000004 NGrid=           0
         NMat0=    1 NMatS0=      1 NMatT0=    0 NMatD0=    1 NMtDS0=    0 NMtDT0=    0
 Symmetry not used in FoFCou.
 Harris En= -234.650549381515    
 Leave Link  401 at Thu Nov 10 12:59:38 2022, MaxMem=  8053063680 cpu:               4.9 elap:               0.3
 (Enter /project/chenjingdan/g16/l502.exe)
 Two-electron integral symmetry not used.
 Closed shell SCF:
 Using DIIS extrapolation, IDIIS=  1040.
 NGot=  8053063680 LenX=  8053036108 LenY=  8053023567
 Requested convergence on RMS density matrix=1.00D-08 within 128 cycles.
 Requested convergence on MAX density matrix=1.00D-06.
 Requested convergence on             energy=1.00D-06.
 No special actions if energy rises.
 Fock matrices will be formed incrementally for  20 cycles.
 Integral accuracy reduced to 1.0D-05 until final iterations.

 Cycle   1  Pass 0  IDiag  1:
 FoFJK:  IHMeth= 1 ICntrl=       0 DoSepK=F KAlg= 0 I1Cent=           0 FoldK=F
 IRaf= 990000000 NMat=       1 IRICut=       1 DoRegI=T DoRafI=F ISym2E= 0 IDoP0=0 IntGTp=1.
 FoFCou: FMM=F IPFlag=           0 FMFlag=      100000 FMFlg1=           0
         NFxFlg=           0 DoJE=F BraDBF=F KetDBF=F FulRan=T
         wScrn=  0.000000 ICntrl=         0 IOpCl=  0 I1Cent=           0 NGrid=           0
         NMat0=    1 NMatS0=      1 NMatT0=    0 NMatD0=    1 NMtDS0=    0 NMtDT0=    0
 Symmetry not used in FoFCou.
 E= -234.573002848391    
 DIIS: error= 2.14D-03 at cycle   1 NSaved=   1.
 NSaved= 1 IEnMin= 1 EnMin= -234.573002848391     IErMin= 1 ErrMin= 2.14D-03
 ErrMax= 2.14D-03  0.00D+00 EMaxC= 1.00D-01 BMatC= 4.87D-04 BMatP= 4.87D-04
 IDIUse=3 WtCom= 9.79D-01 WtEn= 2.14D-02
 Coeff-Com:  0.100D+01
 Coeff-En:   0.100D+01
 Coeff:      0.100D+01
 Gap=     1.947 Goal=   None    Shift=    0.000
 GapD=    1.947 DampG=2.000 DampE=1.000 DampFc=2.0000 IDamp=-1.
 RMSDP=4.52D-04 MaxDP=6.49D-03              OVMax= 2.74D-02

 Cycle   2  Pass 0  IDiag  1:
 RMSU=  4.52D-04    CP:  1.00D+00
 E= -234.574430020678     Delta-E=       -0.001427172287 Rises=F Damp=F
 DIIS: error= 6.25D-04 at cycle   2 NSaved=   2.
 NSaved= 2 IEnMin= 2 EnMin= -234.574430020678     IErMin= 2 ErrMin= 6.25D-04
 ErrMax= 6.25D-04  0.00D+00 EMaxC= 1.00D-01 BMatC= 3.87D-05 BMatP= 4.87D-04
 IDIUse=3 WtCom= 9.94D-01 WtEn= 6.25D-03
 Coeff-Com:  0.392D-01 0.961D+00
 Coeff-En:   0.000D+00 0.100D+01
 Coeff:      0.390D-01 0.961D+00
 Gap=     0.203 Goal=   None    Shift=    0.000
 RMSDP=1.48D-04 MaxDP=1.45D-03 DE=-1.43D-03 OVMax= 7.12D-03

 Cycle   3  Pass 0  IDiag  1:
 RMSU=  1.32D-04    CP:  1.00D+00  1.15D+00
 E= -234.574450631053     Delta-E=       -0.000020610375 Rises=F Damp=F
 DIIS: error= 6.36D-04 at cycle   3 NSaved=   3.
 NSaved= 3 IEnMin= 3 EnMin= -234.574450631053     IErMin= 2 ErrMin= 6.25D-04
 ErrMax= 6.36D-04  0.00D+00 EMaxC= 1.00D-01 BMatC= 4.58D-05 BMatP= 3.87D-05
 IDIUse=3 WtCom= 2.84D-01 WtEn= 7.16D-01
 Coeff-Com: -0.447D-01 0.544D+00 0.501D+00
 Coeff-En:   0.000D+00 0.372D+00 0.628D+00
 Coeff:     -0.127D-01 0.421D+00 0.592D+00
 Gap=     0.203 Goal=   None    Shift=    0.000
 RMSDP=9.13D-05 MaxDP=1.35D-03 DE=-2.06D-05 OVMax= 4.90D-03

 Cycle   4  Pass 0  IDiag  1:
 RMSU=  5.09D-05    CP:  1.00D+00  1.20D+00  4.51D-01
 E= -234.574485688050     Delta-E=       -0.000035056997 Rises=F Damp=F
 DIIS: error= 3.91D-04 at cycle   4 NSaved=   4.
 NSaved= 4 IEnMin= 4 EnMin= -234.574485688050     IErMin= 4 ErrMin= 3.91D-04
 ErrMax= 3.91D-04  0.00D+00 EMaxC= 1.00D-01 BMatC= 1.53D-05 BMatP= 3.87D-05
 IDIUse=3 WtCom= 9.96D-01 WtEn= 3.91D-03
 Coeff-Com: -0.282D-01 0.198D+00 0.397D+00 0.433D+00
 Coeff-En:   0.000D+00 0.000D+00 0.263D+00 0.737D+00
 Coeff:     -0.281D-01 0.197D+00 0.397D+00 0.434D+00
 Gap=     0.203 Goal=   None    Shift=    0.000
 RMSDP=3.66D-05 MaxDP=6.17D-04 DE=-3.51D-05 OVMax= 1.95D-03

 Cycle   5  Pass 0  IDiag  1:
 RMSU=  1.77D-05    CP:  1.00D+00  1.20D+00  6.34D-01  5.91D-01
 E= -234.574502366925     Delta-E=       -0.000016678875 Rises=F Damp=F
 DIIS: error= 4.56D-05 at cycle   5 NSaved=   5.
 NSaved= 5 IEnMin= 5 EnMin= -234.574502366925     IErMin= 5 ErrMin= 4.56D-05
 ErrMax= 4.56D-05  0.00D+00 EMaxC= 1.00D-01 BMatC= 2.67D-07 BMatP= 1.53D-05
 IDIUse=1 WtCom= 1.00D+00 WtEn= 0.00D+00
 Coeff-Com: -0.388D-02-0.144D-01 0.958D-01 0.190D+00 0.732D+00
 Coeff:     -0.388D-02-0.144D-01 0.958D-01 0.190D+00 0.732D+00
 Gap=     0.203 Goal=   None    Shift=    0.000
 RMSDP=7.08D-06 MaxDP=8.20D-05 DE=-1.67D-05 OVMax= 3.58D-04

 Initial convergence to 1.0D-05 achieved.  Increase integral accuracy.
 Cycle   6  Pass 1  IDiag  1:
 E= -234.574526900678     Delta-E=       -0.000024533753 Rises=F Damp=F
 DIIS: error= 9.85D-06 at cycle   1 NSaved=   1.
 NSaved= 1 IEnMin= 1 EnMin= -234.574526900678     IErMin= 1 ErrMin= 9.85D-06
 ErrMax= 9.85D-06  0.00D+00 EMaxC= 1.00D-01 BMatC= 1.05D-08 BMatP= 1.05D-08
 IDIUse=1 WtCom= 1.00D+00 WtEn= 0.00D+00
 Coeff-Com:  0.100D+01
 Coeff:      0.100D+01
 Gap=     0.203 Goal=   None    Shift=    0.000
 RMSDP=7.08D-06 MaxDP=8.20D-05 DE=-2.45D-05 OVMax= 7.55D-05

 Cycle   7  Pass 1  IDiag  1:
 RMSU=  2.13D-06    CP:  1.00D+00
 E= -234.574526907412     Delta-E=       -0.000000006734 Rises=F Damp=F
 DIIS: error= 1.07D-05 at cycle   2 NSaved=   2.
 NSaved= 2 IEnMin= 2 EnMin= -234.574526907412     IErMin= 1 ErrMin= 9.85D-06
 ErrMax= 1.07D-05  0.00D+00 EMaxC= 1.00D-01 BMatC= 8.96D-09 BMatP= 1.05D-08
 IDIUse=1 WtCom= 1.00D+00 WtEn= 0.00D+00
 Coeff-Com:  0.477D+00 0.523D+00
 Coeff:      0.477D+00 0.523D+00
 Gap=     0.203 Goal=   None    Shift=    0.000
 RMSDP=1.05D-06 MaxDP=1.75D-05 DE=-6.73D-09 OVMax= 4.77D-05

 Cycle   8  Pass 1  IDiag  1:
 RMSU=  8.90D-07    CP:  1.00D+00  7.37D-01
 E= -234.574526915316     Delta-E=       -0.000000007904 Rises=F Damp=F
 DIIS: error= 3.45D-06 at cycle   3 NSaved=   3.
 NSaved= 3 IEnMin= 3 EnMin= -234.574526915316     IErMin= 3 ErrMin= 3.45D-06
 ErrMax= 3.45D-06  0.00D+00 EMaxC= 1.00D-01 BMatC= 1.51D-09 BMatP= 8.96D-09
 IDIUse=1 WtCom= 1.00D+00 WtEn= 0.00D+00
 Coeff-Com:  0.101D+00 0.299D+00 0.600D+00
 Coeff:      0.101D+00 0.299D+00 0.600D+00
 Gap=     0.203 Goal=   None    Shift=    0.000
 RMSDP=4.21D-07 MaxDP=6.57D-06 DE=-7.90D-09 OVMax= 2.34D-05

 Cycle   9  Pass 1  IDiag  1:
 RMSU=  3.15D-07    CP:  1.00D+00  8.17D-01  7.54D-01
 E= -234.574526916779     Delta-E=       -0.000000001463 Rises=F Damp=F
 DIIS: error= 1.50D-06 at cycle   4 NSaved=   4.
 NSaved= 4 IEnMin= 4 EnMin= -234.574526916779     IErMin= 4 ErrMin= 1.50D-06
 ErrMax= 1.50D-06  0.00D+00 EMaxC= 1.00D-01 BMatC= 1.50D-10 BMatP= 1.51D-09
 IDIUse=1 WtCom= 1.00D+00 WtEn= 0.00D+00
 Coeff-Com:  0.596D-02 0.107D+00 0.318D+00 0.569D+00
 Coeff:      0.596D-02 0.107D+00 0.318D+00 0.569D+00
 Gap=     0.203 Goal=   None    Shift=    0.000
 RMSDP=1.56D-07 MaxDP=2.12D-06 DE=-1.46D-09 OVMax= 1.07D-05

 Cycle  10  Pass 1  IDiag  1:
 RMSU=  9.40D-08    CP:  1.00D+00  8.34D-01  8.18D-01  6.71D-01
 E= -234.574526916956     Delta-E=       -0.000000000177 Rises=F Damp=F
 DIIS: error= 5.09D-07 at cycle   5 NSaved=   5.
 NSaved= 5 IEnMin= 5 EnMin= -234.574526916956     IErMin= 5 ErrMin= 5.09D-07
 ErrMax= 5.09D-07  0.00D+00 EMaxC= 1.00D-01 BMatC= 1.74D-11 BMatP= 1.50D-10
 IDIUse=1 WtCom= 1.00D+00 WtEn= 0.00D+00
 Coeff-Com: -0.135D-01 0.135D-01 0.773D-01 0.300D+00 0.623D+00
 Coeff:     -0.135D-01 0.135D-01 0.773D-01 0.300D+00 0.623D+00
 Gap=     0.203 Goal=   None    Shift=    0.000
 RMSDP=4.62D-08 MaxDP=5.93D-07 DE=-1.77D-10 OVMax= 2.72D-06

 Cycle  11  Pass 1  IDiag  1:
 RMSU=  2.96D-08    CP:  1.00D+00  8.41D-01  8.25D-01  7.45D-01  7.79D-01
 E= -234.574526916979     Delta-E=       -0.000000000023 Rises=F Damp=F
 DIIS: error= 5.48D-08 at cycle   6 NSaved=   6.
 NSaved= 6 IEnMin= 6 EnMin= -234.574526916979     IErMin= 6 ErrMin= 5.48D-08
 ErrMax= 5.48D-08  0.00D+00 EMaxC= 1.00D-01 BMatC= 3.76D-13 BMatP= 1.74D-11
 IDIUse=1 WtCom= 1.00D+00 WtEn= 0.00D+00
 Coeff-Com: -0.484D-02-0.215D-02 0.326D-02 0.616D-01 0.163D+00 0.780D+00
 Coeff:     -0.484D-02-0.215D-02 0.326D-02 0.616D-01 0.163D+00 0.780D+00
 Gap=     0.203 Goal=   None    Shift=    0.000
 RMSDP=1.17D-08 MaxDP=1.21D-07 DE=-2.27D-11 OVMax= 6.17D-07

 Cycle  12  Pass 1  IDiag  1:
 RMSU=  8.11D-09    CP:  1.00D+00  8.44D-01  8.29D-01  7.59D-01  8.24D-01
                    CP:  9.57D-01
 E= -234.574526916978     Delta-E=        0.000000000001 Rises=F Damp=F
 DIIS: error= 3.36D-08 at cycle   7 NSaved=   7.
 NSaved= 7 IEnMin= 6 EnMin= -234.574526916979     IErMin= 7 ErrMin= 3.36D-08
 ErrMax= 3.36D-08  0.00D+00 EMaxC= 1.00D-01 BMatC= 8.23D-14 BMatP= 3.76D-13
 IDIUse=1 WtCom= 1.00D+00 WtEn= 0.00D+00
 Coeff-Com:  0.953D-04-0.229D-02-0.904D-02-0.150D-01-0.291D-01 0.325D+00
 Coeff-Com:  0.731D+00
 Coeff:      0.953D-04-0.229D-02-0.904D-02-0.150D-01-0.291D-01 0.325D+00
 Coeff:      0.731D+00
 Gap=     0.203 Goal=   None    Shift=    0.000
 RMSDP=4.33D-09 MaxDP=5.22D-08 DE= 8.53D-13 OVMax= 2.36D-07

 SCF Done:  E(RB3LYP) =  -234.574526917     A.U. after   12 cycles
            NFock= 12  Conv=0.43D-08     -V/T= 2.0098
 KE= 2.322994411347D+02 PE=-9.852618578424D+02 EE= 2.968889721099D+02
 Leave Link  502 at Thu Nov 10 12:59:40 2022, MaxMem=  8053063680 cpu:              34.5 elap:               2.2
 (Enter /project/chenjingdan/g16/l801.exe)
 DoSCS=F DFT=T ScalE2(SS,OS)=  1.000000  1.000000
 Range of M.O.s used for correlation:     1   110
 NBasis=   110 NAE=    23 NBE=    23 NFC=     0 NFV=     0
 NROrb=    110 NOA=    23 NOB=    23 NVA=    87 NVB=    87
 Leave Link  801 at Thu Nov 10 12:59:40 2022, MaxMem=  8053063680 cpu:               0.3 elap:               0.0
 (Enter /project/chenjingdan/g16/l1101.exe)
 Leave Link 1101 at Thu Nov 10 12:59:40 2022, MaxMem=  8053063680 cpu:               0.3 elap:               0.0
 (Enter /project/chenjingdan/g16/l1102.exe)
 Symmetrizing basis deriv contribution to polar:
 IMax=3 JMax=2 DiffMx= 0.00D+00
 Leave Link 1102 at Thu Nov 10 12:59:40 2022, MaxMem=  8053063680 cpu:               0.3 elap:               0.0
 (Enter /project/chenjingdan/g16/l1110.exe)
 Leave Link 1110 at Thu Nov 10 12:59:40 2022, MaxMem=  8053063680 cpu:               0.3 elap:               0.0
[...]
 Calling FoFJK, ICntrl=      2127 FMM=F ISym2X=0 I1Cent= 0 IOpClX= 0 NMat=1 NMatS=1 NMatT=0.
 FoFJK:  IHMeth= 1 ICntrl=    2127 DoSepK=F KAlg= 0 I1Cent=           0 FoldK=F
 IRaf=         0 NMat=       1 IRICut=       1 DoRegI=T DoRafI=F ISym2E= 0 IDoP0=0 IntGTp=1.
 FoFCou: FMM=F IPFlag=           0 FMFlag=      100000 FMFlg1=         800
         NFxFlg=           0 DoJE=F BraDBF=F KetDBF=F FulRan=T
         wScrn=  0.000000 ICntrl=      2127 IOpCl=  0 I1Cent=           0 NGrid=           0
         NMat0=    1 NMatS0=      1 NMatT0=    0 NMatD0=    1 NMtDS0=    0 NMtDT0=    0
 Symmetry not used in FoFCou.
 Leave Link  703 at Thu Nov 10 13:01:29 2022, MaxMem=  8053063680 cpu:              11.1 elap:               0.7
 (Enter /project/chenjingdan/g16/l716.exe)
 Dipole        =-8.00004699D-02 2.63648233D-03 3.89906062D-02
 Polarizability= 0.00000000D+00 0.00000000D+00 0.00000000D+00
                 0.00000000D+00 0.00000000D+00 0.00000000D+00
 -------------------------------------------------------------------
 Center     Atomic                   Forces (Hartrees/Bohr)
 Number     Number              X              Y              Z
 -------------------------------------------------------------------
      1        6          -0.007731340   -0.002789536   -0.006287460
      2        1           0.000781459   -0.000951152    0.003993476
      3        1           0.001855383    0.000819025    0.000274322
      4        6          -0.007005017    0.003219760   -0.006135397
      5        1           0.001652652   -0.000963126    0.000349220
      6        1           0.000771277    0.000895466    0.003844837
      7        6           0.004267708    0.004440743   -0.000669785
      8        1           0.001292987   -0.000033677    0.001142992
      9        1           0.001158948   -0.000241867   -0.001487949
     10        6           0.004050967    0.000849640    0.000271555
     11        1          -0.005737890   -0.002440633    0.002751408
     12        6           0.003977576   -0.001083534    0.000299230
     13        1          -0.005510081    0.002791402    0.002714144
     14        6           0.003612740   -0.004597699   -0.000949762
     15        1           0.001335997   -0.000070844    0.001160374
     16        1           0.001226635    0.000156032   -0.001271206
 -------------------------------------------------------------------
 Cartesian Forces:  Max     0.007731340 RMS     0.003090278
 Leave Link  716 at Thu Nov 10 13:01:29 2022, MaxMem=  8053063680 cpu:               0.3 elap:               0.0
 (Enter /project/chenjingdan/g16/l123.exe)
 IRC-IRC-IRC-IRC-IRC-IRC-IRC-IRC-IRC-IRC-IRC-IRC-IRC-IRC-IRC-IRC-IRC-IRC
 Pt 30 Step number   1 out of a maximum of  20
 Point Number:  15          Path Number:   2
                    CURRENT STRUCTURE
                Cartesian Coordinates (Ang):                
 ---------------------------------------------------------------------
 Center     Atomic                     Coordinates (Angstroms)
 Number     Number                        X           Y           Z
 ---------------------------------------------------------------------
      1          6                   -1.218140    0.817645   -0.073536
      2          1                   -1.427446    1.175905   -1.095000
      3          1                   -2.017721    1.221247    0.560878
      4          6                   -1.268987   -0.736964   -0.069867
      5          1                   -2.092644   -1.084781    0.566305
      6          1                   -1.500526   -1.085965   -1.089432
      7          6                    0.141410    1.381138    0.357401
      8          1                    0.178347    2.450482    0.119608
      9          1                    0.233948    1.302254    1.453844
     10          6                    1.267031    0.627335   -0.314440
     11          1                    2.099946    1.171720   -0.778045
     12          6                    1.223557   -0.709993   -0.311014
     13          1                    2.019139   -1.309649   -0.771740
     14          6                    0.051640   -1.385689    0.364541
     15          1                    0.018460   -2.456263    0.131961
     16          1                    0.148689   -1.307216    1.460228
 ---------------------------------------------------------------------
   CHANGE IN THE REACTION COORDINATE =    0.38149
   NET REACTION COORDINATE UP TO THIS POINT =    6.33198
  # OF POINTS ALONG THE PATH =  30
  # OF STEPS =   1

 Maximum number of steps reached.
 Calculation of REVERSE path complete.
 Reaction path calculation complete.
 
 Energies reported relative to the TS energy of        -234.569318
 --------------------------------------------------------------------------
    Summary of reaction path following
 --------------------------------------------------------------------------
                        Energy    RxCoord
   1                   -0.09261  -6.33198
   2                   -0.09206  -5.95049
   3                   -0.09142  -5.56192
   4                   -0.09229  -5.15209
   5                   -0.09026  -4.73763
   6                   -0.08453  -4.30738
   7                   -0.07564  -3.87659
   8                   -0.06459  -3.44573
   9                   -0.05238  -3.01486
  10                   -0.03997  -2.58400
  11                   -0.02834  -2.15319
  12                   -0.01828  -1.72245
  13                   -0.01019  -1.29184
  14                   -0.00433  -0.86147
  15                   -0.00100  -0.43099
  16                    0.00000   0.00000
  17                   -0.00081   0.43099
  18                   -0.00272   0.86107
  19                   -0.00521   1.29076
  20                   -0.00785   1.72133
  21                   -0.01042   2.15207
  22                   -0.01277   2.58288
  23                   -0.01474   3.01315
  24                   -0.01638   3.43979
  25                   -0.01732   3.86295
  26                   -0.01898   4.26318
  27                   -0.02006   4.69011
  28                   -0.02092   5.11659
  29                   -0.02158   5.53954
  30                   -0.02203   5.95688
  31                   -0.02244   6.36370
 --------------------------------------------------------------------------
 
 Total number of points:                   30
 Total number of gradient calculations:    30
 Total number of Hessian calculations:      0
 IRC-IRC-IRC-IRC-IRC-IRC-IRC-IRC-IRC-IRC-IRC-IRC-IRC-IRC-IRC-IRC-IRC-IRC
 Leave Link  123 at Thu Nov 10 13:01:29 2022, MaxMem=  8053063680 cpu:               0.8 elap:               0.1
 (Enter /project/chenjingdan/g16/l202.exe)
                          Input orientation:                          
 ---------------------------------------------------------------------
 Center     Atomic      Atomic             Coordinates (Angstroms)
 Number     Number       Type             X           Y           Z
 ---------------------------------------------------------------------
      1          6           0       -1.218140    0.817645   -0.073536
      2          1           0       -1.427446    1.175905   -1.095000
      3          1           0       -2.017721    1.221247    0.560878
      4          6           0       -1.268987   -0.736964   -0.069867
      5          1           0       -2.092644   -1.084781    0.566305
      6          1           0       -1.500526   -1.085965   -1.089432
      7          6           0        0.141410    1.381138    0.357401
      8          1           0        0.178347    2.450482    0.119608
      9          1           0        0.233948    1.302254    1.453844
     10          6           0        1.267031    0.627335   -0.314440
     11          1           0        2.099946    1.171720   -0.778045
     12          6           0        1.223557   -0.709993   -0.311014
     13          1           0        2.019139   -1.309649   -0.771740
     14          6           0        0.051640   -1.385689    0.364541
     15          1           0        0.018460   -2.456263    0.131961
     16          1           0        0.148689   -1.307216    1.460228
 ---------------------------------------------------------------------
                    Distance matrix (angstroms):
                    1          2          3          4          5
     1  C    0.000000
     2  H    1.102519   0.000000
     3  H    1.097590   1.758526   0.000000
     4  C    1.555445   2.176022   2.189299   0.000000
     5  H    2.189379   2.883249   2.307252   1.097316   0.000000
     6  H    2.176125   2.263057   2.883443   1.102237   1.758429
     7  C    1.533495   2.147766   2.174583   2.580335   3.333976
     8  H    2.157229   2.382938   2.555084   3.505779   4.225521
     9  H    2.162474   3.045128   2.423626   2.956166   3.449449
    10  C    2.504063   2.858394   3.450871   2.890072   3.872270
    11  H    3.410483   3.541606   4.330167   3.936280   4.947413
    12  C    2.889976   3.346500   3.872436   2.504327   3.450702
    13  H    3.936096   4.261623   4.947479   3.410626   4.329861
    14  C    2.580492   3.298442   3.334204   1.534148   2.174674
    15  H    3.505693   4.097404   4.225409   2.157370   2.554678
    16  H    2.955620   3.896060   3.448954   2.162448   2.423252
                    6          7          8          9         10
     6  H    0.000000
     7  C    3.297859   0.000000
     8  H    4.097177   1.096088   0.000000
     9  H    3.896184   1.103165   1.761166   0.000000
    10  C    3.345950   1.512155   2.167371   2.156295   0.000000
    11  H    4.261162   2.273534   2.476602   2.912099   1.097739
    12  C    2.857957   2.447580   3.356562   2.853628   1.338039
    13  H    3.541046   3.470038   4.280375   3.868097   2.127604
    14  C    2.147811   2.768292   3.846071   2.906004   2.447541
    15  H    2.382611   3.845982   4.909365   3.990020   3.356602
    16  H    3.044606   2.905775   3.989792   2.610871   2.853528
                   11         12         13         14         15
    11  H    0.000000
    12  C    2.127680   0.000000
    13  H    2.482693   1.097638   0.000000
    14  C    3.470073   1.512061   2.273318   0.000000
    15  H    4.280532   2.167473   2.476714   1.096048   0.000000
    16  H    3.868126   2.156226   2.912091   1.102772   1.761125
                   16
    16  H    0.000000
 Symmetry turned off by external request.
 Stoichiometry    C6H10
 Framework group  C1[X(C6H10)]
 Deg. of freedom    42
 Full point group                 C1      NOp   1
 Rotational constants (GHZ):           4.6554461           4.5818361           2.6305194
 Leave Link  202 at Thu Nov 10 13:01:30 2022, MaxMem=  8053063680 cpu:               0.1 elap:               0.0
 (Enter /project/chenjingdan/g16/l601.exe)
 Copying SCF densities to generalized density rwf, IOpCl= 0 IROHF=0.

 **********************************************************************

            Population analysis using the SCF Density.

 **********************************************************************

 Alpha  occ. eigenvalues --  -10.17940 -10.17937 -10.17660 -10.17641 -10.17491
 Alpha  occ. eigenvalues --  -10.17406  -0.82463  -0.73129  -0.72956  -0.61369
 Alpha  occ. eigenvalues --   -0.58423  -0.49527  -0.48731  -0.46674  -0.39629
 Alpha  occ. eigenvalues --   -0.39517  -0.38984  -0.37228  -0.37035  -0.31807
 Alpha  occ. eigenvalues --   -0.30977  -0.29698  -0.23504
 Alpha virt. eigenvalues --    0.02754   0.08839   0.11356   0.12752   0.14596
 Alpha virt. eigenvalues --    0.15087   0.16940   0.18951   0.19287   0.20813
 Alpha virt. eigenvalues --    0.21379   0.23147   0.24674   0.25140   0.31705
 Alpha virt. eigenvalues --    0.36320   0.41378   0.50164   0.51957   0.54849
 Alpha virt. eigenvalues --    0.56682   0.58587   0.61654   0.62602   0.63161
 Alpha virt. eigenvalues --    0.64243   0.66060   0.69878   0.71067   0.72222
 Alpha virt. eigenvalues --    0.77796   0.82351   0.84451   0.85479   0.85743
 Alpha virt. eigenvalues --    0.85870   0.87984   0.88111   0.92155   0.92675
 Alpha virt. eigenvalues --    0.93727   0.94519   0.97718   0.98963   1.12067
 Alpha virt. eigenvalues --    1.14441   1.17933   1.34844   1.37772   1.39336
 Alpha virt. eigenvalues --    1.49989   1.52866   1.61406   1.69259   1.73390
 Alpha virt. eigenvalues --    1.73624   1.82711   1.87659   1.88378   1.89294
 Alpha virt. eigenvalues --    1.93185   1.97654   2.00382   2.06676   2.11331
 Alpha virt. eigenvalues --    2.16869   2.19512   2.21806   2.30624   2.32180
 Alpha virt. eigenvalues --    2.37389   2.38329   2.44004   2.47403   2.50994
 Alpha virt. eigenvalues --    2.57023   2.64177   2.67438   2.74126   2.87691
 Alpha virt. eigenvalues --    2.96988   4.12149   4.19798   4.24643   4.40033
 Alpha virt. eigenvalues --    4.46801   4.64601
          Condensed to atoms (all electrons):
               1          2          3          4          5          6
     1  C    5.014339   0.376957   0.364900   0.367702  -0.035154  -0.035658
     2  H    0.376957   0.605342  -0.038444  -0.035686   0.004838  -0.011198
     3  H    0.364900  -0.038444   0.613400  -0.035176  -0.009704   0.004839
     4  C    0.367702  -0.035686  -0.035176   5.014472   0.364922   0.376977
     5  H   -0.035154   0.004838  -0.009704   0.364922   0.613279  -0.038436
     6  H   -0.035658  -0.011198   0.004839   0.376977  -0.038436   0.605194
     7  C    0.377920  -0.039055  -0.032136  -0.043887   0.002262   0.002297
     8  H   -0.032056  -0.007162  -0.000335   0.004958  -0.000149  -0.000181
     9  H   -0.040522   0.006031  -0.005474  -0.004828   0.000871  -0.000012
    10  C   -0.039401  -0.002773   0.004731  -0.021302   0.000708   0.001852
    11  H    0.003571   0.000273  -0.000149  -0.000077   0.000012  -0.000011
    12  C   -0.021290   0.001848   0.000707  -0.039393   0.004728  -0.002767
    13  H   -0.000078  -0.000010   0.000012   0.003570  -0.000149   0.000273
    14  C   -0.043884   0.002302   0.002260   0.377852  -0.032130  -0.039045
    15  H    0.004956  -0.000180  -0.000149  -0.032054  -0.000335  -0.007152
    16  H   -0.004830  -0.000012   0.000871  -0.040522  -0.005462   0.006030
               7          8          9         10         11         12
     1  C    0.377920  -0.032056  -0.040522  -0.039401   0.003571  -0.021290
     2  H   -0.039055  -0.007162   0.006031  -0.002773   0.000273   0.001848
     3  H   -0.032136  -0.000335  -0.005474   0.004731  -0.000149   0.000707
     4  C   -0.043887   0.004958  -0.004828  -0.021302  -0.000077  -0.039393
     5  H    0.002262  -0.000149   0.000871   0.000708   0.000012   0.004728
     6  H    0.002297  -0.000181  -0.000012   0.001852  -0.000011  -0.002767
     7  C    5.020766   0.368880   0.368811   0.386879  -0.050691  -0.047349
     8  H    0.368880   0.600406  -0.039001  -0.029960  -0.005334   0.005073
     9  H    0.368811  -0.039001   0.604524  -0.035076   0.003494  -0.010738
    10  C    0.386879  -0.029960  -0.035076   4.877648   0.366016   0.694006
    11  H   -0.050691  -0.005334   0.003494   0.366016   0.605660  -0.042442
    12  C   -0.047349   0.005073  -0.010738   0.694006  -0.042442   4.877456
    13  H    0.006145  -0.000144  -0.000153  -0.042452  -0.008026   0.366031
    14  C   -0.021192   0.000328   0.003105  -0.047353   0.006144   0.386931
    15  H    0.000328  -0.000003  -0.000107   0.005073  -0.000144  -0.029947
    16  H    0.003112  -0.000107   0.004118  -0.010739  -0.000153  -0.035052
              13         14         15         16
     1  C   -0.000078  -0.043884   0.004956  -0.004830
     2  H   -0.000010   0.002302  -0.000180  -0.000012
     3  H    0.000012   0.002260  -0.000149   0.000871
     4  C    0.003570   0.377852  -0.032054  -0.040522
     5  H   -0.000149  -0.032130  -0.000335  -0.005462
     6  H    0.000273  -0.039045  -0.007152   0.006030
     7  C    0.006145  -0.021192   0.000328   0.003112
     8  H   -0.000144   0.000328  -0.000003  -0.000107
     9  H   -0.000153   0.003105  -0.000107   0.004118
    10  C   -0.042452  -0.047353   0.005073  -0.010739
    11  H   -0.008026   0.006144  -0.000144  -0.000153
    12  C    0.366031   0.386931  -0.029947  -0.035052
    13  H    0.605672  -0.050710  -0.005335   0.003494
    14  C   -0.050710   5.020865   0.368881   0.368840
    15  H   -0.005335   0.368881   0.600389  -0.038990
    16  H    0.003494   0.368840  -0.038990   0.604356
 Mulliken charges:
               1
     1  C   -0.257472
     2  H    0.136929
     3  H    0.129846
     4  C   -0.257527
     5  H    0.129899
     6  H    0.136996
     7  C   -0.303090
     8  H    0.134786
     9  H    0.144958
    10  C   -0.107855
    11  H    0.121857
    12  C   -0.107802
    13  H    0.121858
    14  C   -0.303195
    15  H    0.134769
    16  H    0.145044
 Sum of Mulliken charges =  -0.00000
 Mulliken charges with hydrogens summed into heavy atoms:
               1
     1  C    0.009303
     4  C    0.009368
     7  C   -0.023347
    10  C    0.014002
    12  C    0.014056
    14  C   -0.023381
 APT charges:
               1
     1  C   -0.859344
     2  H    0.403077
     3  H    0.464346
     4  C   -0.858787
     5  H    0.464354
     6  H    0.402990
     7  C   -0.874889
     8  H    0.488618
     9  H    0.367178
    10  C   -0.508069
    11  H    0.518869
    12  C   -0.508133
    13  H    0.518834
    14  C   -0.874731
    15  H    0.488546
    16  H    0.367142
 Sum of APT charges =  -0.00000
 APT charges with hydrogens summed into heavy atoms:
               1
     1  C    0.008079
     4  C    0.008557
     7  C   -0.019093
    10  C    0.010800
    12  C    0.010701
    14  C   -0.019043
 Electronic spatial extent (au):  <R**2>=            546.2188
 Charge=             -0.0000 electrons
 Dipole moment (field-independent basis, Debye):
    X=             -0.2033    Y=              0.0067    Z=              0.0991  Tot=              0.2263
 Quadrupole moment (field-independent basis, Debye-Ang):
   XX=            -38.2422   YY=            -36.9029   ZZ=            -38.3251
   XY=              0.0427   XZ=             -0.9178   YZ=              0.0265
 Traceless Quadrupole moment (field-independent basis, Debye-Ang):
   XX=             -0.4188   YY=              0.9205   ZZ=             -0.5017
   XY=              0.0427   XZ=             -0.9178   YZ=              0.0265
 Octapole moment (field-independent basis, Debye-Ang**2):
  XXX=              3.5495  YYY=             -0.2664  ZZZ=              1.0089  XYY=              2.5811
  XXY=              0.0456  XXZ=             -2.3135  XZZ=             -0.1620  YZZ=              0.0136
  YYZ=             -1.5482  XYZ=              0.0190
 Hexadecapole moment (field-independent basis, Debye-Ang**3):
 XXXX=           -326.4972 YYYY=           -322.9404 ZZZZ=            -91.6864 XXXY=              0.1463
 XXXZ=              2.9412 YYYX=              0.0144 YYYZ=              0.1022 ZZZX=             13.9493
 ZZZY=             -0.1526 XXYY=           -107.5064 XXZZ=            -68.8310 YYZZ=            -70.5255
 XXYZ=              0.1203 YYXZ=              1.8442 ZZXY=             -0.0257
 N-N= 2.367385685052D+02 E-N=-1.015782161373D+03  KE= 2.322529726351D+02
  Exact polarizability:       0.000       0.000       0.000       0.000       0.000       0.000
 Approx polarizability:      76.249       0.796     101.269      -6.947       0.148      70.227
 No NMR shielding tensors so no spin-rotation constants.
 Leave Link  601 at Thu Nov 10 13:01:30 2022, MaxMem=  8053063680 cpu:               1.7 elap:               0.1
 (Enter /project/chenjingdan/g16/l9999.exe)

 This type of calculation cannot be archived.


 TRUST EVERYONE, BUT CUT THE CARDS.
 Job cpu time:       0 days  0 hours 27 minutes 55.7 seconds.
 Elapsed time:       0 days  0 hours  1 minutes 57.0 seconds.
 File lengths (MBytes):  RWF=     14 Int=      0 D2E=      0 Chk=      4 Scr=      1
 Normal termination of Gaussian 16 at Thu Nov 10 13:01:30 2022.
