 Entering Gaussian System, Link 0=g16
 Initial command:
 /project/chenjingdan/g16/l1.exe "/scratch/chenjingdan/scratch/Gau-2499.inp" -scrdir="/scratch/chenjingdan/scratch/"
 Entering Link 1 = /project/chenjingdan/g16/l1.exe PID=      2501.
  
 Copyright (c) 1988-2019, Gaussian, Inc.  All Rights Reserved.
  
 This is part of the Gaussian(R) 16 program.  It is based on
 the Gaussian(R) 09 system (copyright 2009, Gaussian, Inc.),
 the Gaussian(R) 03 system (copyright 2003, Gaussian, Inc.),
 the Gaussian(R) 98 system (copyright 1998, Gaussian, Inc.),
 the Gaussian(R) 94 system (copyright 1995, Gaussian, Inc.),
 the Gaussian 92(TM) system (copyright 1992, Gaussian, Inc.),
 the Gaussian 90(TM) system (copyright 1990, Gaussian, Inc.),
 the Gaussian 88(TM) system (copyright 1988, Gaussian, Inc.),
 the Gaussian 86(TM) system (copyright 1986, Carnegie Mellon
 University), and the Gaussian 82(TM) system (copyright 1983,
 Carnegie Mellon University). Gaussian is a federally registered
 trademark of Gaussian, Inc.
  
 This software contains proprietary and confidential information,
 including trade secrets, belonging to Gaussian, Inc.
  
 This software is provided under written license and may be
 used, copied, transmitted, or stored only in accord with that
 written license.
  
 The following legend is applicable only to US Government
 contracts under FAR:
  
                    RESTRICTED RIGHTS LEGEND
  
 Use, reproduction and disclosure by the US Government is
 subject to restrictions as set forth in subparagraphs (a)
 and (c) of the Commercial Computer Software - Restricted
 Rights clause in FAR 52.227-19.
  
 Gaussian, Inc.
 340 Quinnipiac St., Bldg. 40, Wallingford CT 06492
  
  
 ---------------------------------------------------------------
 Warning -- This program may not be used in any manner that
 competes with the business of Gaussian, Inc. or will provide
 assistance to any competitor of Gaussian, Inc.  The licensee
 of this program is prohibited from giving any competitor of
 Gaussian, Inc. access to this program.  By using this program,
 the user acknowledges that Gaussian, Inc. is engaged in the
 business of creating and licensing software in the field of
 computational chemistry and represents and warrants to the
 licensee that it is not a competitor of Gaussian, Inc. and that
 it will not use this program in any manner prohibited above.
 ---------------------------------------------------------------
  

 Cite this work as:
 Gaussian 16, Revision C.01,
 M. J. Frisch, G. W. Trucks, H. B. Schlegel, G. E. Scuseria, 
 M. A. Robb, J. R. Cheeseman, G. Scalmani, V. Barone, 
 G. A. Petersson, H. Nakatsuji, X. Li, M. Caricato, A. V. Marenich, 
 J. Bloino, B. G. Janesko, R. Gomperts, B. Mennucci, H. P. Hratchian, 
 J. V. Ortiz, A. F. Izmaylov, J. L. Sonnenberg, D. Williams-Young, 
 F. Ding, F. Lipparini, F. Egidi, J. Goings, B. Peng, A. Petrone, 
 T. Henderson, D. Ranasinghe, V. G. Zakrzewski, J. Gao, N. Rega, 
 G. Zheng, W. Liang, M. Hada, M. Ehara, K. Toyota, R. Fukuda, 
 J. Hasegawa, M. Ishida, T. Nakajima, Y. Honda, O. Kitao, H. Nakai, 
 T. Vreven, K. Throssell, J. A. Montgomery, Jr., J. E. Peralta, 
 F. Ogliaro, M. J. Bearpark, J. J. Heyd, E. N. Brothers, K. N. Kudin, 
 V. N. Staroverov, T. A. Keith, R. Kobayashi, J. Normand, 
 K. Raghavachari, A. P. Rendell, J. C. Burant, S. S. Iyengar, 
 J. Tomasi, M. Cossi, J. M. Millam, M. Klene, C. Adamo, R. Cammi, 
 J. W. Ochterski, R. L. Martin, K. Morokuma, O. Farkas, 
 J. B. Foresman, and D. J. Fox, Gaussian, Inc., Wallingford CT, 2019.
 
 ******************************************
 Gaussian 16:  ES64L-G16RevC.01  3-Jul-2019
                 6-Nov-2022 
 ******************************************
 %nprocshared=16
 Will use up to   16 processors via shared memory.
 %mem=60GB
 %chk=S_ts3_irc.chk
 ----------------------------------------------------------------------
 #p irc=(restart,maxpoints=80,maxstep=15,lqa) 6-31g(d,p) m062x geom=all
 check guess=read
 ----------------------------------------------------------------------
 1/8=15,10=7,18=10,26=3,35=1,42=80,44=3,45=2/23(2);
 2/29=1/2;
 99/5=20/99;
 2/29=1/2;
 3/5=1,6=6,7=101,11=2,14=-2,25=1,30=1,71=2,74=-55,140=1/1,2,3;
 4/5=5,16=3,69=1/1;
 5/5=2,38=5/2;
 8/6=4,10=90,11=11/1;
 11/6=1,8=1,9=11,15=111,16=1/1,2,10;
 10/6=1,13=1/2;
 7/10=1,25=1/1,2,3,16;
 1/8=15,18=10,26=3,42=80,44=3,45=2/23(-8);
 2/29=1/2;
 6/7=2,8=2,9=2,10=2,19=2,28=1/1;
 99/5=20,9=1/99;
 Leave Link    1 at Sun Nov  6 14:33:50 2022, MaxMem=  8053063680 cpu:               1.9 elap:               0.1
 (Enter /project/chenjingdan/g16/l123.exe)
 IRC-IRC-IRC-IRC-IRC-IRC-IRC-IRC-IRC-IRC-IRC-IRC-IRC-IRC-IRC-IRC-IRC-IRC
 Restoring state from the checkpoint file "S_ts3_irc.chk".
 ONIOM results not found on unit 2.
 Title:  TITLE
 Route:  #p irc=(calcfc,maxpoints=40,maxstep=15,lqa) 6-31g(d,p) m062x
 ------------------------------------------------------------------------
 INPUT DATA FOR L123
 ------------------------------------------------------------------------
 GENERAL PARAMETERS:
 Follow reaction path in both directions.
 Maximum points per path      =  80
 Step size                    =   0.110 sqrt(amu)*bohr
 Integration scheme           = LQA                                 
 Hessian evaluation           = All updating
 Hessian updating method      = Bofill                              
 ------------------------------------------------------------------------
 RESTARTING THE IRC JOB
 OTIRC1 is resizing the OT bucket.
 Pt 80 Step number   1 out of a maximum of  20
 Point Number:  40          Path Number:   1
   CHANGE IN THE REACTION COORDINATE =    0.10861
   NET REACTION COORDINATE UP TO THIS POINT =    4.38718
  # OF POINTS ALONG THE PATH =  40
  # OF STEPS =   1

 Calculating another point on the path.
 Point Number 41 in FORWARD path direction.
 Using LQA Reaction Path Following.
   LQA: T_Est iteration completed in    4 iterations.
 IRC-IRC-IRC-IRC-IRC-IRC-IRC-IRC-IRC-IRC-IRC-IRC-IRC-IRC-IRC-IRC-IRC-IRC
 Leave Link  123 at Sun Nov  6 14:33:50 2022, MaxMem=  8053063680 cpu:              11.3 elap:               0.8
 (Enter /project/chenjingdan/g16/l202.exe)
 Symmetry turned off by external request.
 Stoichiometry    C45H45N2O9P
 Framework group  C1[X(C45H45N2O9P)]
 Deg. of freedom   300
 Full point group                 C1      NOp   1
                          Input orientation:                          
 ---------------------------------------------------------------------
 Center     Atomic      Atomic             Coordinates (Angstroms)
 Number     Number       Type             X           Y           Z
 ---------------------------------------------------------------------
      1          8           0        0.840936    1.792161   -3.308089
      2          7           0        1.864744    2.198023   -0.216517
      3          8           0        2.886951    2.586882   -3.070336
      4          8           0        4.037087    2.552625   -0.759545
      5          6           0        1.640418    4.491190   -1.173944
      6          7           0        4.982902   -1.507017    4.083074
      7          6           0        4.493395   -0.596330    3.031816
      8          6           0        1.661694    2.406299   -2.641807
      9          6           0        3.586246    1.097059    1.070883
     10          6           0        1.289565    3.008065   -1.282331
     11          6           0        3.176903    2.010240   -0.045001
     12          6           0        2.694732    0.210679    1.685956
     13          6           0        5.399513    0.266265    2.431180
     14          6           0        4.931835    1.117994    1.439667
     15          6           0        3.150221   -0.643562    2.682144
     16          8           0        6.160431   -1.436805    4.380167
     17          8           0        4.178312   -2.269208    4.584432
     18          1           0       -0.173627    0.980587   -2.481627
     19          1           0        1.165334    1.739482    0.366069
     20          1           0        3.470804    2.804320   -2.286551
     21          1           0        2.719238    4.651270   -1.188940
     22          1           0        1.186120    5.044230   -1.999724
     23          1           0        1.240581    4.878857   -0.234861
     24          1           0        1.654002    0.143756    1.377010
     25          1           0        6.436170    0.256561    2.742635
     26          1           0        5.598278    1.804652    0.929623
     27          1           0        2.492084   -1.348684    3.174055
     28          8           0       -0.836132    0.349740   -2.046386
     29          8           0       -2.676518    0.061581   -0.532747
     30          6           0       -2.731025    6.348393   -0.172760
     31          8           0       -0.549272   -1.258458   -0.059944
     32          6           0       -5.104144    1.953707   -0.776999
     33          6           0        5.162672    0.023407   -2.281340
     34          8           0       -0.526351    1.186368    0.431801
     35          6           0        0.720189   -1.184395   -4.290224
     36          6           0        2.035721   -2.962110    0.297730
     37          6           0       -1.740556    2.564574    2.987887
     38          6           0       -2.296371    4.394743    1.366663
     39          6           0       -3.429104   -1.524981    1.082005
     40          6           0       -4.325919   -0.773748    3.200198
     41          6           0       -3.868455    4.107537   -0.411104
     42          6           0       -2.962341    4.923540    0.262147
     43          6           0       -2.092837   -2.964065   -0.736679
     44          6           0       -3.426176    2.279337    1.102475
     45          6           0       -3.268882   -0.202922    0.700399
     46          6           0       -3.175819   -2.814546    0.319829
     47          6           0       -4.113056    2.793590   -0.010560
     48          6           0       -4.419494   -3.264665   -0.497689
     49          6           0       -2.513693    3.088657    1.803302
     50          6           0       -3.925800   -1.803331    2.358313
     51          6           0       -4.197261    0.546285    2.771388
     52          6           0        0.061578   -2.734332   -1.855727
     53          6           0       -0.862347   -2.343067   -0.879150
     54          6           0       -3.889483   -4.377458   -1.422542
     55          6           0       -3.643297    0.864186    1.526616
     56          6           0       -1.573189   -4.357570   -2.648323
     57          6           0        1.376606   -2.038304   -1.976330
     58          6           0       -2.461086   -3.944139   -1.664009
     59          6           0        3.528886   -1.455623   -1.045522
     60          6           0       -0.311767   -3.768097   -2.719830
     61          6           0        2.315363   -2.131512   -0.930192
     62          6           0        2.893157   -0.604344   -3.188443
     63          6           0        1.673699   -1.283012   -3.123942
     64          6           0        3.833930   -0.677147   -2.163649
     65          6           0       -2.944844   -3.792253    1.508874
     66          6           0       -3.894907   -3.292763    2.613396
     67         15           0       -1.075920    0.194401   -0.520548
     68          1           0        0.209271    2.888166   -1.179463
     69          1           0       -1.720414    6.680520    0.078938
     70          1           0       -2.870866    6.461569   -1.250682
     71          1           0       -3.432575    7.027463    0.323032
     72          1           0       -5.726821    2.582763   -1.416692
     73          1           0       -5.758090    1.395786   -0.100961
     74          1           0       -4.589484    1.225909   -1.412083
     75          1           0        5.527917    0.346083   -1.302820
     76          1           0        5.912765   -0.643879   -2.718825
     77          1           0        5.083253    0.905701   -2.920755
     78          1           0        0.911053   -0.266997   -4.850371
     79          1           0        0.849741   -2.032215   -4.972142
     80          1           0       -0.320879   -1.179536   -3.961517
     81          1           0        1.272340   -2.491965    0.928153
     82          1           0        2.942452   -3.082902    0.895420
     83          1           0        1.665029   -3.955304    0.027900
     84          1           0       -2.368238    2.487829    3.881276
     85          1           0       -1.335739    1.572822    2.774733
     86          1           0       -0.909963    3.233980    3.223690
     87          1           0       -1.580658    5.014868    1.903004
     88          1           0       -4.719810   -0.990160    4.188697
     89          1           0       -4.402412    4.501739   -1.273203
     90          1           0       -4.765155   -2.417194   -1.098993
     91          1           0       -5.243402   -3.584914    0.146304
     92          1           0       -4.507825    1.360532    3.419273
     93          1           0       -4.459750   -4.463627   -2.351234
     94          1           0       -3.925392   -5.356481   -0.929386
     95          1           0       -1.859659   -5.122146   -3.364172
     96          1           0        4.254870   -1.534334   -0.237092
     97          1           0        0.395515   -4.084696   -3.480518
     98          1           0        3.101977    0.013556   -4.058667
     99          1           0       -3.111051   -4.835004    1.224706
    100          1           0       -1.906660   -3.692369    1.843258
    101          1           0       -3.542901   -3.537901    3.618873
    102          1           0       -4.895432   -3.729133    2.505361
 ---------------------------------------------------------------------
 Rotational constants (GHZ):           0.0578469           0.0434163           0.0383327
 Leave Link  202 at Sun Nov  6 14:33:50 2022, MaxMem=  8053063680 cpu:               0.4 elap:               0.1
 (Enter /project/chenjingdan/g16/l301.exe)
 Standard basis: 6-31G(d,p) (6D, 7F)
 Ernie: Thresh=  0.10000D-02 Tol=  0.10000D-05 Strict=F.
  1084 basis functions,  1935 primitive gaussians,  1084 cartesian basis functions
   208 alpha electrons      208 beta electrons
       nuclear repulsion energy      9218.0295617257 Hartrees.
 IExCor= 4336 DFT=T Ex+Corr=M062X ExCW=0 ScaHFX=  0.540000
 ScaDFX=  1.000000  1.000000  1.000000  1.000000 ScalE2=  1.000000  1.000000
 IRadAn=      5 IRanWt=     -1 IRanGd=            0 ICorTp=0 IEmpDi=  4
 NAtoms=  102 NActive=  102 NUniq=  102 SFac= 1.00D+00 NAtFMM=   60 NAOKFM=T Big=T
 Integral buffers will be    131072 words long.
 Raffenetti 2 integral format.
 Two-electron integral symmetry is turned off.
 Leave Link  301 at Sun Nov  6 14:33:51 2022, MaxMem=  8053063680 cpu:               1.2 elap:               0.1
 (Enter /project/chenjingdan/g16/l302.exe)
 NPDir=0 NMtPBC=     1 NCelOv=     1 NCel=       1 NClECP=     1 NCelD=      1
         NCelK=      1 NCelE2=     1 NClLst=     1 CellRange=     0.0.
 One-electron integrals computed using PRISM.
 NBasis=  1084 RedAO= T EigKep=  2.34D-04  NBF=  1084
 NBsUse=  1084 1.00D-06 EigRej= -1.00D+00 NBFU=  1084
 Precomputing XC quadrature grid using
 IXCGrd= 4 IRadAn=           5 IRanWt=          -1 IRanGd=           0 AccXCQ= 0.00D+00.
 Generated NRdTot=       0 NPtTot=           0 NUsed=           0 NTot=          32
 NSgBfM=  1033  1033  1033  1033  1033 MxSgAt=   102 MxSgA2=   102.
 Leave Link  302 at Sun Nov  6 14:33:53 2022, MaxMem=  8053063680 cpu:              40.6 elap:               2.6
 (Enter /project/chenjingdan/g16/l303.exe)
 DipDrv:  MaxL=1.
 Leave Link  303 at Sun Nov  6 14:33:53 2022, MaxMem=  8053063680 cpu:               2.2 elap:               0.2
 (Enter /project/chenjingdan/g16/l401.exe)
 Initial guess from the checkpoint file:  "S_ts3_irc.chk"
 B after Tr=     0.000486    0.000062   -0.000511
         Rot=    1.000000   -0.000037   -0.000368    0.000685 Ang=  -0.09 deg.
 Guess basis will be translated and rotated to current coordinates.
 JPrj=2 DoOrth=T DoCkMO=T.
 Generating alternative initial guess.
 ExpMin= 9.98D-02 ExpMax= 1.94D+04 ExpMxC= 2.91D+03 IAcc=3 IRadAn=         5 AccDes= 0.00D+00
 Harris functional with IExCor= 1009 and IRadAn=       5 diagonalized for initial guess.
 HarFok:  IExCor= 1009 AccDes= 0.00D+00 IRadAn=         5 IDoV= 1 UseB2=F ITyADJ=14
 ICtDFT=  3500011 ScaDFX=  1.000000  1.000000  1.000000  1.000000
 FoFCou: FMM=F IPFlag=           0 FMFlag=      100000 FMFlg1=        2001
         NFxFlg=           0 DoJE=T BraDBF=F KetDBF=T FulRan=T
         wScrn=  0.000000 ICntrl=       500 IOpCl=  0 I1Cent=   200000004 NGrid=           0
         NMat0=    1 NMatS0=      1 NMatT0=    0 NMatD0=    1 NMtDS0=    0 NMtDT0=    0
 Symmetry not used in FoFCou.
 Harris En= -2867.63029785007    
 Leave Link  401 at Sun Nov  6 14:34:01 2022, MaxMem=  8053063680 cpu:             118.4 elap:               7.5
 (Enter /project/chenjingdan/g16/l502.exe)
 Two-electron integral symmetry not used.
 Closed shell SCF:
 Using DIIS extrapolation, IDIIS=  1040.
 NGot=  8053063680 LenX=  8050685130 LenY=  8049508990
 Requested convergence on RMS density matrix=1.00D-08 within 128 cycles.
 Requested convergence on MAX density matrix=1.00D-06.
 Requested convergence on             energy=1.00D-06.
 No special actions if energy rises.
 Fock matrices will be formed incrementally for  20 cycles.
 Integral accuracy reduced to 1.0D-05 until final iterations.

 Cycle   1  Pass 0  IDiag  1:
 FoFJK:  IHMeth= 1 ICntrl=       0 DoSepK=F KAlg= 0 I1Cent=           0 FoldK=F
 IRaf= 770000000 NMat=       1 IRICut=       1 DoRegI=T DoRafI=F ISym2E= 0 IDoP0=0 IntGTp=1.
 FoFCou: FMM=T IPFlag=           0 FMFlag=      100000 FMFlg1=        2001
         NFxFlg=           0 DoJE=F BraDBF=F KetDBF=F FulRan=T
         wScrn=  0.000000 ICntrl=         0 IOpCl=  0 I1Cent=           0 NGrid=           0
         NMat0=    1 NMatS0=      1 NMatT0=    0 NMatD0=    1 NMtDS0=    0 NMtDT0=    0
 Symmetry not used in FoFCou.
 FMM levels:  10  Number of levels for PrismC:   9
 E= -2868.59211392005    
 DIIS: error= 7.52D-03 at cycle   1 NSaved=   1.
 NSaved= 1 IEnMin= 1 EnMin= -2868.59211392005     IErMin= 1 ErrMin= 7.52D-03
 ErrMax= 7.52D-03  0.00D+00 EMaxC= 1.00D-01 BMatC= 1.94D-01 BMatP= 1.94D-01
 IDIUse=3 WtCom= 9.25D-01 WtEn= 7.52D-02
 Coeff-Com:  0.100D+01
 Coeff-En:   0.100D+01
 Coeff:      0.100D+01
 Gap=     2.028 Goal=   None    Shift=    0.000
 GapD=    2.028 DampG=2.000 DampE=1.000 DampFc=2.0000 IDamp=-1.
 RMSDP=6.83D-04 MaxDP=9.67D-02              OVMax= 1.20D-01

 Cycle   2  Pass 0  IDiag  1:
 RMSU=  6.82D-04    CP:  9.97D-01
 E= -2868.85562363107     Delta-E=       -0.263509711020 Rises=F Damp=F
 DIIS: error= 4.07D-03 at cycle   2 NSaved=   2.
 NSaved= 2 IEnMin= 2 EnMin= -2868.85562363107     IErMin= 2 ErrMin= 4.07D-03
 ErrMax= 4.07D-03  0.00D+00 EMaxC= 1.00D-01 BMatC= 4.41D-02 BMatP= 1.94D-01
 IDIUse=3 WtCom= 9.59D-01 WtEn= 4.07D-02
 Coeff-Com:  0.197D+00 0.803D+00
 Coeff-En:   0.000D+00 0.100D+01
 Coeff:      0.189D+00 0.811D+00
 Gap=     0.206 Goal=   None    Shift=    0.000
 RMSDP=3.14D-04 MaxDP=4.98D-02 DE=-2.64D-01 OVMax= 4.26D-02

 Cycle   3  Pass 0  IDiag  1:
 RMSU=  3.04D-04    CP:  9.96D-01  8.87D-01
 E= -2868.86277714997     Delta-E=       -0.007153518894 Rises=F Damp=F
 DIIS: error= 4.51D-03 at cycle   3 NSaved=   3.
 NSaved= 3 IEnMin= 3 EnMin= -2868.86277714997     IErMin= 2 ErrMin= 4.07D-03
 ErrMax= 4.51D-03  0.00D+00 EMaxC= 1.00D-01 BMatC= 4.09D-02 BMatP= 4.41D-02
 IDIUse=3 WtCom= 9.55D-01 WtEn= 4.51D-02
 Coeff-Com: -0.733D-01 0.509D+00 0.564D+00
 Coeff-En:   0.000D+00 0.446D+00 0.554D+00
 Coeff:     -0.700D-01 0.506D+00 0.564D+00
 Gap=     0.207 Goal=   None    Shift=    0.000
 RMSDP=1.76D-04 MaxDP=2.96D-02 DE=-7.15D-03 OVMax= 3.89D-02

 Cycle   4  Pass 0  IDiag  1:
 RMSU=  8.68D-05    CP:  9.96D-01  1.03D+00  6.18D-01
 E= -2868.89417555275     Delta-E=       -0.031398402789 Rises=F Damp=F
 DIIS: error= 5.82D-04 at cycle   4 NSaved=   4.
 NSaved= 4 IEnMin= 4 EnMin= -2868.89417555275     IErMin= 4 ErrMin= 5.82D-04
 ErrMax= 5.82D-04  0.00D+00 EMaxC= 1.00D-01 BMatC= 6.39D-04 BMatP= 4.09D-02
 IDIUse=3 WtCom= 9.94D-01 WtEn= 5.82D-03
 Coeff-Com: -0.281D-01 0.827D-01 0.165D+00 0.781D+00
 Coeff-En:   0.000D+00 0.000D+00 0.000D+00 0.100D+01
 Coeff:     -0.279D-01 0.822D-01 0.164D+00 0.782D+00
 Gap=     0.207 Goal=   None    Shift=    0.000
 RMSDP=3.63D-05 MaxDP=4.88D-03 DE=-3.14D-02 OVMax= 6.34D-03

 Cycle   5  Pass 0  IDiag  1:
 RMSU=  3.02D-05    CP:  9.95D-01  1.04D+00  6.83D-01  1.03D+00
 E= -2868.89476356624     Delta-E=       -0.000588013483 Rises=F Damp=F
 DIIS: error= 2.55D-04 at cycle   5 NSaved=   5.
 NSaved= 5 IEnMin= 5 EnMin= -2868.89476356624     IErMin= 5 ErrMin= 2.55D-04
 ErrMax= 2.55D-04  0.00D+00 EMaxC= 1.00D-01 BMatC= 1.53D-04 BMatP= 6.39D-04
 IDIUse=3 WtCom= 9.97D-01 WtEn= 2.55D-03
 Coeff-Com: -0.531D-02-0.231D-01 0.184D-01 0.373D+00 0.637D+00
 Coeff-En:   0.000D+00 0.000D+00 0.000D+00 0.000D+00 0.100D+01
 Coeff:     -0.529D-02-0.230D-01 0.184D-01 0.372D+00 0.638D+00
 Gap=     0.207 Goal=   None    Shift=    0.000
 RMSDP=1.76D-05 MaxDP=1.85D-03 DE=-5.88D-04 OVMax= 3.87D-03

 Cycle   6  Pass 0  IDiag  1:
 RMSU=  1.20D-05    CP:  9.95D-01  1.04D+00  6.93D-01  1.15D+00  7.54D-01
 E= -2868.89492007622     Delta-E=       -0.000156509985 Rises=F Damp=F
 DIIS: error= 1.23D-04 at cycle   6 NSaved=   6.
 NSaved= 6 IEnMin= 6 EnMin= -2868.89492007622     IErMin= 6 ErrMin= 1.23D-04
 ErrMax= 1.23D-04  0.00D+00 EMaxC= 1.00D-01 BMatC= 3.23D-05 BMatP= 1.53D-04
 IDIUse=3 WtCom= 9.99D-01 WtEn= 1.23D-03
 Coeff-Com:  0.269D-02-0.281D-01-0.180D-01 0.278D-01 0.326D+00 0.690D+00
 Coeff-En:   0.000D+00 0.000D+00 0.000D+00 0.000D+00 0.000D+00 0.100D+01
 Coeff:      0.268D-02-0.281D-01-0.180D-01 0.278D-01 0.325D+00 0.690D+00
 Gap=     0.207 Goal=   None    Shift=    0.000
 RMSDP=8.16D-06 MaxDP=8.89D-04 DE=-1.57D-04 OVMax= 1.88D-03

 Initial convergence to 1.0D-05 achieved.  Increase integral accuracy.
 Cycle   7  Pass 1  IDiag  1:
 E= -2868.89488855725     Delta-E=        0.000031518975 Rises=F Damp=F
 DIIS: error= 2.68D-04 at cycle   1 NSaved=   1.
 NSaved= 1 IEnMin= 1 EnMin= -2868.89488855725     IErMin= 1 ErrMin= 2.68D-04
 ErrMax= 2.68D-04  0.00D+00 EMaxC= 1.00D-01 BMatC= 6.01D-05 BMatP= 6.01D-05
 IDIUse=3 WtCom= 9.97D-01 WtEn= 2.68D-03
 Coeff-Com:  0.100D+01
 Coeff-En:   0.100D+01
 Coeff:      0.100D+01
 Gap=     0.207 Goal=   None    Shift=    0.000
 RMSDP=8.16D-06 MaxDP=8.89D-04 DE= 3.15D-05 OVMax= 2.07D-03

 Cycle   8  Pass 1  IDiag  1:
 RMSU=  1.14D-04    CP:  1.00D+00
 E= -2868.89492607999     Delta-E=       -0.000037522748 Rises=F Damp=F
 DIIS: error= 1.50D-04 at cycle   2 NSaved=   2.
 NSaved= 2 IEnMin= 2 EnMin= -2868.89492607999     IErMin= 2 ErrMin= 1.50D-04
 ErrMax= 1.50D-04  0.00D+00 EMaxC= 1.00D-01 BMatC= 1.82D-05 BMatP= 6.01D-05
 IDIUse=3 WtCom= 9.99D-01 WtEn= 1.50D-03
 Coeff-Com:  0.283D+00 0.717D+00
 Coeff-En:   0.000D+00 0.100D+01
 Coeff:      0.282D+00 0.718D+00
 Gap=     0.207 Goal=   None    Shift=    0.000
 RMSDP=7.04D-06 MaxDP=1.20D-03 DE=-3.75D-05 OVMax= 3.00D-03

 Cycle   9  Pass 1  IDiag  1:
 RMSU=  6.80D-06    CP:  1.00D+00  1.02D+00
 E= -2868.89492463436     Delta-E=        0.000001445635 Rises=F Damp=F
 DIIS: error= 1.72D-04 at cycle   3 NSaved=   3.
 NSaved= 3 IEnMin= 2 EnMin= -2868.89492607999     IErMin= 2 ErrMin= 1.50D-04
 ErrMax= 1.72D-04  0.00D+00 EMaxC= 1.00D-01 BMatC= 2.08D-05 BMatP= 1.82D-05
 IDIUse=3 WtCom= 4.33D-01 WtEn= 5.67D-01
 Coeff-Com: -0.769D-02 0.518D+00 0.489D+00
 Coeff-En:   0.000D+00 0.519D+00 0.481D+00
 Coeff:     -0.333D-02 0.518D+00 0.485D+00
 Gap=     0.207 Goal=   None    Shift=    0.000
 RMSDP=3.66D-06 MaxDP=6.55D-04 DE= 1.45D-06 OVMax= 1.70D-03

 Cycle  10  Pass 1  IDiag  1:
 RMSU=  1.15D-06    CP:  1.00D+00  1.03D+00  5.15D-01
 E= -2868.89494044485     Delta-E=       -0.000015810490 Rises=F Damp=F
 DIIS: error= 1.15D-05 at cycle   4 NSaved=   4.
 NSaved= 4 IEnMin= 4 EnMin= -2868.89494044485     IErMin= 4 ErrMin= 1.15D-05
 ErrMax= 1.15D-05  0.00D+00 EMaxC= 1.00D-01 BMatC= 2.81D-07 BMatP= 1.82D-05
 IDIUse=1 WtCom= 1.00D+00 WtEn= 0.00D+00
 Coeff-Com: -0.971D-02 0.276D+00 0.269D+00 0.464D+00
 Coeff:     -0.971D-02 0.276D+00 0.269D+00 0.464D+00
 Gap=     0.207 Goal=   None    Shift=    0.000
 RMSDP=4.89D-07 MaxDP=6.78D-05 DE=-1.58D-05 OVMax= 1.08D-04

 Cycle  11  Pass 1  IDiag  1:
 RMSU=  4.28D-07    CP:  1.00D+00  1.03D+00  5.17D-01  8.02D-01
 E= -2868.89494067045     Delta-E=       -0.000000225597 Rises=F Damp=F
 DIIS: error= 2.40D-06 at cycle   5 NSaved=   5.
 NSaved= 5 IEnMin= 5 EnMin= -2868.89494067045     IErMin= 5 ErrMin= 2.40D-06
 ErrMax= 2.40D-06  0.00D+00 EMaxC= 1.00D-01 BMatC= 9.69D-09 BMatP= 2.81D-07
 IDIUse=1 WtCom= 1.00D+00 WtEn= 0.00D+00
 Coeff-Com: -0.193D-02 0.239D-01 0.226D-01 0.108D+00 0.848D+00
 Coeff:     -0.193D-02 0.239D-01 0.226D-01 0.108D+00 0.848D+00
 Gap=     0.207 Goal=   None    Shift=    0.000
 RMSDP=1.84D-07 MaxDP=2.60D-05 DE=-2.26D-07 OVMax= 4.47D-05

 Cycle  12  Pass 1  IDiag  1:
 RMSU=  1.62D-07    CP:  1.00D+00  1.03D+00  5.17D-01  8.65D-01  1.10D+00
 E= -2868.89494068689     Delta-E=       -0.000000016445 Rises=F Damp=F
 DIIS: error= 1.29D-06 at cycle   6 NSaved=   6.
 NSaved= 6 IEnMin= 6 EnMin= -2868.89494068689     IErMin= 6 ErrMin= 1.29D-06
 ErrMax= 1.29D-06  0.00D+00 EMaxC= 1.00D-01 BMatC= 5.89D-09 BMatP= 9.69D-09
 IDIUse=1 WtCom= 1.00D+00 WtEn= 0.00D+00
 Coeff-Com:  0.194D-02-0.732D-01-0.726D-01-0.101D+00 0.474D+00 0.771D+00
 Coeff:      0.194D-02-0.732D-01-0.726D-01-0.101D+00 0.474D+00 0.771D+00
 Gap=     0.207 Goal=   None    Shift=    0.000
 RMSDP=1.34D-07 MaxDP=1.49D-05 DE=-1.64D-08 OVMax= 3.63D-05

 Cycle  13  Pass 1  IDiag  1:
 RMSU=  8.29D-08    CP:  1.00D+00  1.03D+00  5.18D-01  9.21D-01  1.30D+00
                    CP:  9.76D-01
 E= -2868.89494069437     Delta-E=       -0.000000007478 Rises=F Damp=F
 DIIS: error= 3.13D-07 at cycle   7 NSaved=   7.
 NSaved= 7 IEnMin= 7 EnMin= -2868.89494069437     IErMin= 7 ErrMin= 3.13D-07
 ErrMax= 3.13D-07  0.00D+00 EMaxC= 1.00D-01 BMatC= 3.52D-10 BMatP= 5.89D-09
 IDIUse=1 WtCom= 1.00D+00 WtEn= 0.00D+00
 Coeff-Com:  0.993D-03-0.337D-01-0.334D-01-0.534D-01 0.152D+00 0.335D+00
 Coeff-Com:  0.633D+00
 Coeff:      0.993D-03-0.337D-01-0.334D-01-0.534D-01 0.152D+00 0.335D+00
 Coeff:      0.633D+00
 Gap=     0.207 Goal=   None    Shift=    0.000
 RMSDP=2.72D-08 MaxDP=2.76D-06 DE=-7.48D-09 OVMax= 5.67D-06

 Cycle  14  Pass 1  IDiag  1:
 RMSU=  2.27D-08    CP:  1.00D+00  1.03D+00  5.18D-01  9.25D-01  1.32D+00
                    CP:  1.05D+00  1.02D+00
 E= -2868.89494069459     Delta-E=       -0.000000000222 Rises=F Damp=F
 DIIS: error= 1.32D-07 at cycle   8 NSaved=   8.
 NSaved= 8 IEnMin= 8 EnMin= -2868.89494069459     IErMin= 8 ErrMin= 1.32D-07
 ErrMax= 1.32D-07  0.00D+00 EMaxC= 1.00D-01 BMatC= 4.34D-11 BMatP= 3.52D-10
 IDIUse=1 WtCom= 1.00D+00 WtEn= 0.00D+00
 Coeff-Com:  0.763D-04-0.151D-02-0.152D-02-0.507D-02-0.142D-01 0.553D-02
 Coeff-Com:  0.246D+00 0.771D+00
 Coeff:      0.763D-04-0.151D-02-0.152D-02-0.507D-02-0.142D-01 0.553D-02
 Coeff:      0.246D+00 0.771D+00
 Gap=     0.207 Goal=   None    Shift=    0.000
 RMSDP=1.26D-08 MaxDP=7.97D-07 DE=-2.22D-10 OVMax= 2.86D-06

 Cycle  15  Pass 1  IDiag  1:
 RMSU=  8.84D-09    CP:  1.00D+00  1.03D+00  5.18D-01  9.26D-01  1.33D+00
                    CP:  1.06D+00  1.10D+00  8.31D-01
 E= -2868.89494069468     Delta-E=       -0.000000000084 Rises=F Damp=F
 DIIS: error= 8.47D-08 at cycle   9 NSaved=   9.
 NSaved= 9 IEnMin= 9 EnMin= -2868.89494069468     IErMin= 9 ErrMin= 8.47D-08
 ErrMax= 8.47D-08  0.00D+00 EMaxC= 1.00D-01 BMatC= 1.38D-11 BMatP= 4.34D-11
 IDIUse=1 WtCom= 1.00D+00 WtEn= 0.00D+00
 Coeff-Com: -0.917D-04 0.376D-02 0.373D-02 0.446D-02-0.300D-01-0.442D-01
 Coeff-Com:  0.503D-01 0.444D+00 0.568D+00
 Coeff:     -0.917D-04 0.376D-02 0.373D-02 0.446D-02-0.300D-01-0.442D-01
 Coeff:      0.503D-01 0.444D+00 0.568D+00
 Gap=     0.207 Goal=   None    Shift=    0.000
 RMSDP=5.31D-09 MaxDP=3.54D-07 DE=-8.37D-11 OVMax= 9.96D-07

 SCF Done:  E(RM062X) =  -2868.89494069     A.U. after   15 cycles
            NFock= 15  Conv=0.53D-08     -V/T= 2.0079
 KE= 2.846368620091D+03 PE=-2.512719243489D+04 EE= 1.019389931238D+04
 Leave Link  502 at Sun Nov  6 14:39:22 2022, MaxMem=  8053063680 cpu:            5126.0 elap:             321.1
 (Enter /project/chenjingdan/g16/l801.exe)
 DoSCS=F DFT=T ScalE2(SS,OS)=  1.000000  1.000000
 Range of M.O.s used for correlation:     1  1084
 NBasis=  1084 NAE=   208 NBE=   208 NFC=     0 NFV=     0
 NROrb=   1084 NOA=   208 NOB=   208 NVA=   876 NVB=   876
 Leave Link  801 at Sun Nov  6 14:39:23 2022, MaxMem=  8053063680 cpu:               0.9 elap:               0.1
 (Enter /project/chenjingdan/g16/l1101.exe)
 Leave Link 1101 at Sun Nov  6 14:39:23 2022, MaxMem=  8053063680 cpu:               0.4 elap:               0.3
 (Enter /project/chenjingdan/g16/l1102.exe)
 Symmetrizing basis deriv contribution to polar:
 IMax=3 JMax=2 DiffMx= 0.00D+00
 Leave Link 1102 at Sun Nov  6 14:39:24 2022, MaxMem=  8053063680 cpu:               2.5 elap:               0.3
 (Enter /project/chenjingdan/g16/l1110.exe)
 Leave Link 1110 at Sun Nov  6 14:39:25 2022, MaxMem=  8053063680 cpu:               0.5 elap:               0.2
 (Enter /project/chenjingdan/g16/l1002.exe)
 Minotr:  Closed shell wavefunction.
 Leave Link 1002 at Sun Nov  6 14:39:26 2022, MaxMem=  8053063680 cpu:               0.8 elap:               0.1
 (Enter /project/chenjingdan/g16/l701.exe)
 ... and contract with generalized density number  0.
 Compute integral first derivatives.
 Leave Link  701 at Sun Nov  6 14:39:28 2022, MaxMem=  8053063680 cpu:              12.2 elap:               1.0
 (Enter /project/chenjingdan/g16/l702.exe)
 L702 exits ... SP integral derivatives will be done elsewhere.
 Leave Link  702 at Sun Nov  6 14:39:28 2022, MaxMem=  8053063680 cpu:               0.3 elap:               0.1
 (Enter /project/chenjingdan/g16/l703.exe)
 Integral derivatives from FoFJK, PRISM(SPDF).
 Compute integral first derivatives, UseDBF=F ICtDFT=           0.
 Calling FoFJK, ICntrl=      2127 FMM=T ISym2X=0 I1Cent= 0 IOpClX= 0 NMat=1 NMatS=1 NMatT=0.
 FoFJK:  IHMeth= 1 ICntrl=    2127 DoSepK=F KAlg= 0 I1Cent=           0 FoldK=F
 IRaf=         0 NMat=       1 IRICut=       1 DoRegI=T DoRafI=F ISym2E= 0 IDoP0=0 IntGTp=1.
 FoFCou: FMM=T IPFlag=           0 FMFlag=      100000 FMFlg1=        2001
         NFxFlg=           0 DoJE=F BraDBF=F KetDBF=F FulRan=T
         wScrn=  0.000000 ICntrl=      2127 IOpCl=  0 I1Cent=           0 NGrid=           0
         NMat0=    1 NMatS0=      1 NMatT0=    0 NMatD0=    1 NMtDS0=    0 NMtDT0=    0
 Symmetry not used in FoFCou.
 FMM levels:  10  Number of levels for PrismC:   9
 Leave Link  703 at Sun Nov  6 14:40:43 2022, MaxMem=  8053063680 cpu:            1194.2 elap:              74.8
 (Enter /project/chenjingdan/g16/l716.exe)
 Dipole        =-1.43660631D+00 3.62198090D-01-1.88458695D-01
 Polarizability= 0.00000000D+00 0.00000000D+00 0.00000000D+00
                 0.00000000D+00 0.00000000D+00 0.00000000D+00
 -------------------------------------------------------------------
 Center     Atomic                   Forces (Hartrees/Bohr)
 Number     Number              X              Y              Z
 -------------------------------------------------------------------
      1        8           0.000012071    0.000290021    0.000177062
      2        7           0.000745843    0.000521851   -0.000267486
      3        8           0.000739419    0.000131906    0.000479673
      4        8           0.000396907    0.000172624    0.000083674
      5        6           0.000634585    0.000248162   -0.000113707
      6        7          -0.000051893   -0.000053130    0.000002027
      7        6           0.000079051    0.000008260    0.000003847
      8        6           0.000130259    0.000154370    0.000052758
      9        6           0.000246604    0.000114703    0.000004979
     10        6           0.000368385    0.000267999    0.000040137
     11        6           0.000383338    0.000273785   -0.000072334
     12        6           0.000203359    0.000092021   -0.000117076
     13        6           0.000134151    0.000026348    0.000115269
     14        6           0.000224809    0.000083539    0.000116907
     15        6           0.000105054    0.000039397   -0.000116226
     16        8          -0.000075784   -0.000165496    0.000128673
     17        8          -0.000158268   -0.000032064   -0.000098901
     18        1           0.000304857    0.000302413   -0.000153998
     19        1          -0.000440520   -0.000251004    0.000334206
     20        1          -0.000430592   -0.000198383   -0.000507232
     21        1           0.000016728   -0.000004162   -0.000007923
     22        1           0.000020783    0.000011606    0.000000923
     23        1           0.000030595    0.000011650   -0.000000292
     24        1           0.000010482    0.000002616   -0.000005354
     25        1           0.000002257   -0.000000496    0.000007655
     26        1           0.000006096    0.000002294    0.000007809
     27        1           0.000001034   -0.000001554   -0.000005125
     28        8          -0.000740064   -0.000627571   -0.000131621
     29        8          -0.000161445   -0.000085803   -0.000047434
     30        6          -0.000009318   -0.000109020   -0.000005418
     31        8          -0.000162072    0.000106893   -0.000043992
     32        6          -0.000143237   -0.000054277    0.000048870
     33        6          -0.000092076    0.000023351    0.000034051
     34        8           0.000124042    0.000435653   -0.000470527
     35        6          -0.000097846    0.000007153   -0.000044350
     36        6          -0.000100051    0.000064793    0.000062932
     37        6           0.000037329   -0.000181979   -0.000104463
     38        6          -0.000024927   -0.000118895   -0.000021800
     39        6          -0.000054788   -0.000073941    0.000034530
     40        6          -0.000032188   -0.000053858    0.000044305
     41        6          -0.000090748   -0.000075391    0.000024589
     42        6          -0.000051053   -0.000101080    0.000001588
     43        6          -0.000054903   -0.000060428    0.000066311
     44        6          -0.000080986   -0.000084897   -0.000001990
     45        6          -0.000073725   -0.000081612    0.000008638
     46        6          -0.000057066   -0.000085216    0.000061909
     47        6          -0.000107911   -0.000072436    0.000023799
     48        6          -0.000052085   -0.000121853    0.000074023
     49        6          -0.000034986   -0.000115777   -0.000027938
     50        6          -0.000034672   -0.000058774    0.000050238
     51        6          -0.000048562   -0.000063925    0.000020701
     52        6          -0.000074466   -0.000000817    0.000047080
     53        6          -0.000085723   -0.000015202    0.000036129
     54        6          -0.000021444   -0.000116803    0.000084003
     55        6          -0.000071112   -0.000079899    0.000002552
     56        6          -0.000035351   -0.000045636    0.000058693
     57        6          -0.000093835    0.000031227    0.000043859
     58        6          -0.000034246   -0.000078678    0.000072736
     59        6          -0.000096958    0.000043659    0.000045814
     60        6          -0.000052844   -0.000013619    0.000049824
     61        6          -0.000094013    0.000047988    0.000051492
     62        6          -0.000101598    0.000039753    0.000048095
     63        6          -0.000098517    0.000023040    0.000046076
     64        6          -0.000098083    0.000041535    0.000038777
     65        6          -0.000044674   -0.000071186    0.000073786
     66        6          -0.000032543   -0.000054172    0.000075414
     67       15          -0.000468746   -0.000166856   -0.000620180
     68        1          -0.000000799    0.000014562    0.000008647
     69        1           0.000000817   -0.000008438   -0.000010215
     70        1          -0.000009923   -0.000001525    0.000005566
     71        1           0.000009840   -0.000002493    0.000007490
     72        1          -0.000005451   -0.000000884    0.000004224
     73        1          -0.000002357   -0.000002115    0.000002693
     74        1          -0.000005402   -0.000000948   -0.000000551
     75        1          -0.000006883    0.000015361    0.000005229
     76        1           0.000004031   -0.000008239    0.000012786
     77        1          -0.000000826   -0.000006083   -0.000008553
     78        1          -0.000034052   -0.000063283    0.000048474
     79        1          -0.000002202    0.000082848    0.000040389
     80        1           0.000080991   -0.000020645   -0.000035578
     81        1          -0.000002973    0.000002577    0.000002030
     82        1          -0.000004073    0.000002253    0.000002926
     83        1          -0.000003393    0.000001772    0.000002891
     84        1           0.000003438   -0.000014677   -0.000004085
     85        1           0.000004846   -0.000000965   -0.000007273
     86        1          -0.000002058   -0.000005238    0.000000147
     87        1           0.000001292   -0.000004349   -0.000001000
     88        1          -0.000000558   -0.000001648    0.000000367
     89        1          -0.000002747   -0.000001553    0.000002587
     90        1          -0.000003306   -0.000003593    0.000001419
     91        1           0.000000534   -0.000004562    0.000001817
     92        1          -0.000001205   -0.000002196   -0.000000865
     93        1          -0.000000566   -0.000004955    0.000002132
     94        1           0.000001357   -0.000001955    0.000002710
     95        1          -0.000000073   -0.000001526    0.000001399
     96        1          -0.000002460    0.000001270    0.000002141
     97        1          -0.000000766    0.000000773    0.000000210
     98        1          -0.000002840    0.000001955    0.000002101
     99        1          -0.000001441   -0.000001791    0.000002105
    100        1          -0.000001340   -0.000002296    0.000001613
    101        1          -0.000000614   -0.000000485    0.000000521
    102        1          -0.000000962   -0.000001647    0.000002464
 -------------------------------------------------------------------
 Cartesian Forces:  Max     0.000745843 RMS     0.000151069
 Z-matrix is all fixed cartesians, so copy forces.
 Leave Link  716 at Sun Nov  6 14:40:44 2022, MaxMem=  8053063680 cpu:               0.9 elap:               0.2
 (Enter /project/chenjingdan/g16/l123.exe)
 IRC-IRC-IRC-IRC-IRC-IRC-IRC-IRC-IRC-IRC-IRC-IRC-IRC-IRC-IRC-IRC-IRC-IRC
 Pt 81 Step number   1 out of a maximum of  20
 Point Number:  41          Path Number:   1
   CHANGE IN THE REACTION COORDINATE =    0.10879
   NET REACTION COORDINATE UP TO THIS POINT =    4.49596
  # OF POINTS ALONG THE PATH =  41
  # OF STEPS =   1

 Calculating another point on the path.
 Point Number 42 in FORWARD path direction.
 Using LQA Reaction Path Following.
   LQA: T_Est iteration completed in    4 iterations.
 IRC-IRC-IRC-IRC-IRC-IRC-IRC-IRC-IRC-IRC-IRC-IRC-IRC-IRC-IRC-IRC-IRC-IRC
 Leave Link  123 at Sun Nov  6 14:40:45 2022, MaxMem=  8053063680 cpu:               7.0 elap:               0.5
 (Enter /project/chenjingdan/g16/l202.exe)
 Symmetry turned off by external request.
 Stoichiometry    C45H45N2O9P
 Framework group  C1[X(C45H45N2O9P)]
 Deg. of freedom   300
 Full point group                 C1      NOp   1
                          Input orientation:                          
 ---------------------------------------------------------------------
 Center     Atomic      Atomic             Coordinates (Angstroms)
 Number     Number       Type             X           Y           Z
 ---------------------------------------------------------------------
      1          8           0        0.841251    1.794065   -3.306491
      2          7           0        1.867366    2.200221   -0.216118
      3          8           0        2.888735    2.586607   -3.070559
      4          8           0        4.040028    2.554013   -0.759040
      5          6           0        1.645939    4.493400   -1.174794
      6          7           0        4.982517   -1.507446    4.083096
      7          6           0        4.494095   -0.596230    3.031816
      8          6           0        1.663181    2.407674   -2.641165
      9          6           0        3.588473    1.098159    1.070908
     10          6           0        1.292834    3.010665   -1.281900
     11          6           0        3.179671    2.011987   -0.044797
     12          6           0        2.696548    0.211505    1.684939
     13          6           0        5.400730    0.266532    2.432181
     14          6           0        4.933819    1.118759    1.440686
     15          6           0        3.151190   -0.643189    2.681094
     16          8           0        6.159886   -1.437914    4.381007
     17          8           0        4.177230   -2.269412    4.583710
     18          1           0       -0.174909    0.980780   -2.481400
     19          1           0        1.166102    1.740450    0.365754
     20          1           0        3.472143    2.804288   -2.289003
     21          1           0        2.724943    4.651961   -1.190957
     22          1           0        1.191455    5.046634   -2.000339
     23          1           0        1.247717    4.882148   -0.235459
     24          1           0        1.656086    0.144616    1.375142
     25          1           0        6.437165    0.256581    2.744381
     26          1           0        5.600680    1.805585    0.931409
     27          1           0        2.492621   -1.348455    3.172233
     28          8           0       -0.838969    0.347580   -2.048914
     29          8           0       -2.677748    0.061074   -0.532873
     30          6           0       -2.731158    6.347399   -0.172796
     31          8           0       -0.550372   -1.257893   -0.060135
     32          6           0       -5.105444    1.953210   -0.776582
     33          6           0        5.161872    0.023591   -2.281012
     34          8           0       -0.525883    1.188399    0.427440
     35          6           0        0.719650   -1.184335   -4.290129
     36          6           0        2.034811   -2.961532    0.298269
     37          6           0       -1.740255    2.562993    2.986964
     38          6           0       -2.296615    4.393655    1.366438
     39          6           0       -3.429637   -1.525675    1.082336
     40          6           0       -4.326235   -0.774250    3.200593
     41          6           0       -3.869309    4.106852   -0.410892
     42          6           0       -2.962826    4.922615    0.262139
     43          6           0       -2.093359   -2.964627   -0.736081
     44          6           0       -3.426933    2.278550    1.102444
     45          6           0       -3.269564   -0.203642    0.700513
     46          6           0       -3.176350   -2.815321    0.320388
     47          6           0       -4.114076    2.792934   -0.010338
     48          6           0       -4.419959   -3.265752   -0.497051
     49          6           0       -2.514003    3.087585    1.803001
     50          6           0       -3.926137   -1.803879    2.358761
     51          6           0       -4.197737    0.545711    2.771584
     52          6           0        0.060854   -2.734311   -1.855325
     53          6           0       -0.863133   -2.343160   -0.878765
     54          6           0       -3.889695   -4.378511   -1.421804
     55          6           0       -3.643998    0.863460    1.526676
     56          6           0       -1.573518   -4.358012   -2.647772
     57          6           0        1.375723   -2.038005   -1.975948
     58          6           0       -2.461399   -3.944875   -1.663334
     59          6           0        3.527982   -1.455213   -1.045119
     60          6           0       -0.312250   -3.768212   -2.719360
     61          6           0        2.314465   -2.131059   -0.929741
     62          6           0        2.892239   -0.604001   -3.188035
     63          6           0        1.672829   -1.282797   -3.123580
     64          6           0        3.833023   -0.676763   -2.163288
     65          6           0       -2.945230   -3.792888    1.509526
     66          6           0       -3.895205   -3.293269    2.614052
     67         15           0       -1.077245    0.194300   -0.522394
     68          1           0        0.212376    2.892251   -1.178446
     69          1           0       -1.719826    6.678639    0.077212
     70          1           0       -2.872797    6.460982   -1.250435
     71          1           0       -3.431256    7.026919    0.324444
     72          1           0       -5.728371    2.582408   -1.415890
     73          1           0       -5.759103    1.395098   -0.100432
     74          1           0       -4.590976    1.225601   -1.412043
     75          1           0        5.526013    0.348503   -1.302789
     76          1           0        5.912494   -0.644687   -2.716136
     77          1           0        5.083178    0.904464   -2.922489
     78          1           0        0.909161   -0.266409   -4.849058
     79          1           0        0.850701   -2.030700   -4.972732
     80          1           0       -0.321106   -1.181426   -3.962138
     81          1           0        1.271433   -2.491317    0.928651
     82          1           0        2.941541   -3.082277    0.895970
     83          1           0        1.664116   -3.954757    0.028553
     84          1           0       -2.367650    2.484836    3.880426
     85          1           0       -1.334722    1.571742    2.772780
     86          1           0       -0.910113    3.232786    3.223237
     87          1           0       -1.580558    5.013594    1.902536
     88          1           0       -4.719994   -0.990589    4.189156
     89          1           0       -4.403374    4.501212   -1.272847
     90          1           0       -4.765810   -2.418413   -1.098439
     91          1           0       -5.243780   -3.586122    0.146984
     92          1           0       -4.508266    1.360050    3.419364
     93          1           0       -4.459927   -4.464867   -2.350502
     94          1           0       -3.925379   -5.357502   -0.928582
     95          1           0       -1.859868   -5.122588   -3.363669
     96          1           0        4.254021   -1.533957   -0.236742
     97          1           0        0.395054   -4.084549   -3.480143
     98          1           0        3.101087    0.013798   -4.058323
     99          1           0       -3.111448   -4.835666    1.225472
    100          1           0       -1.907019   -3.692955    1.843807
    101          1           0       -3.543113   -3.538260    3.619529
    102          1           0       -4.895738   -3.729653    2.506146
 ---------------------------------------------------------------------
 Rotational constants (GHZ):           0.0578436           0.0434072           0.0383221
 Leave Link  202 at Sun Nov  6 14:40:45 2022, MaxMem=  8053063680 cpu:               0.4 elap:               0.1
 (Enter /project/chenjingdan/g16/l301.exe)
 Standard basis: 6-31G(d,p) (6D, 7F)
 Ernie: Thresh=  0.10000D-02 Tol=  0.10000D-05 Strict=F.
  1084 basis functions,  1935 primitive gaussians,  1084 cartesian basis functions
   208 alpha electrons      208 beta electrons
       nuclear repulsion energy      9217.3057491122 Hartrees.
 IExCor= 4336 DFT=T Ex+Corr=M062X ExCW=0 ScaHFX=  0.540000
 ScaDFX=  1.000000  1.000000  1.000000  1.000000 ScalE2=  1.000000  1.000000
 IRadAn=      5 IRanWt=     -1 IRanGd=            0 ICorTp=0 IEmpDi=  4
 NAtoms=  102 NActive=  102 NUniq=  102 SFac= 1.00D+00 NAtFMM=   60 NAOKFM=T Big=T
 Integral buffers will be    131072 words long.
 Raffenetti 2 integral format.
 Two-electron integral symmetry is turned off.
 Leave Link  301 at Sun Nov  6 14:40:45 2022, MaxMem=  8053063680 cpu:               1.1 elap:               0.1
 (Enter /project/chenjingdan/g16/l302.exe)
 NPDir=0 NMtPBC=     1 NCelOv=     1 NCel=       1 NClECP=     1 NCelD=      1
         NCelK=      1 NCelE2=     1 NClLst=     1 CellRange=     0.0.
 One-electron integrals computed using PRISM.
 NBasis=  1084 RedAO= T EigKep=  2.34D-04  NBF=  1084
 NBsUse=  1084 1.00D-06 EigRej= -1.00D+00 NBFU=  1084
 Precomputing XC quadrature grid using
 IXCGrd= 4 IRadAn=           5 IRanWt=          -1 IRanGd=           0 AccXCQ= 0.00D+00.
 Generated NRdTot=       0 NPtTot=           0 NUsed=           0 NTot=          32
 NSgBfM=  1033  1033  1033  1033  1033 MxSgAt=   102 MxSgA2=   102.
 Leave Link  302 at Sun Nov  6 14:40:48 2022, MaxMem=  8053063680 cpu:              41.6 elap:               2.6
 (Enter /project/chenjingdan/g16/l303.exe)
 DipDrv:  MaxL=1.
 Leave Link  303 at Sun Nov  6 14:40:48 2022, MaxMem=  8053063680 cpu:               2.2 elap:               0.2
 (Enter /project/chenjingdan/g16/l401.exe)
 Initial guess from the checkpoint file:  "S_ts3_irc.chk"
 B after Tr=     0.000032   -0.000006    0.000012
         Rot=    1.000000    0.000002    0.000002   -0.000001 Ang=   0.00 deg.
 Guess basis will be translated and rotated to current coordinates.
 JPrj=2 DoOrth=T DoCkMO=T.
 Generating alternative initial guess.
 ExpMin= 9.98D-02 ExpMax= 1.94D+04 ExpMxC= 2.91D+03 IAcc=3 IRadAn=         5 AccDes= 0.00D+00
 Harris functional with IExCor= 1009 and IRadAn=       5 diagonalized for initial guess.
 HarFok:  IExCor= 1009 AccDes= 0.00D+00 IRadAn=         5 IDoV= 1 UseB2=F ITyADJ=14
 ICtDFT=  3500011 ScaDFX=  1.000000  1.000000  1.000000  1.000000
 FoFCou: FMM=F IPFlag=           0 FMFlag=      100000 FMFlg1=        2001
         NFxFlg=           0 DoJE=T BraDBF=F KetDBF=T FulRan=T
         wScrn=  0.000000 ICntrl=       500 IOpCl=  0 I1Cent=   200000004 NGrid=           0
         NMat0=    1 NMatS0=      1 NMatT0=    0 NMatD0=    1 NMtDS0=    0 NMtDT0=    0
 Symmetry not used in FoFCou.
 Harris En= -2867.63046524724    
 Leave Link  401 at Sun Nov  6 14:40:55 2022, MaxMem=  8053063680 cpu:             113.2 elap:               7.1
 (Enter /project/chenjingdan/g16/l502.exe)
 Two-electron integral symmetry not used.
 Closed shell SCF:
 Using DIIS extrapolation, IDIIS=  1040.
 NGot=  8053063680 LenX=  8050685130 LenY=  8049508990
 Requested convergence on RMS density matrix=1.00D-08 within 128 cycles.
 Requested convergence on MAX density matrix=1.00D-06.
 Requested convergence on             energy=1.00D-06.
 No special actions if energy rises.
 Fock matrices will be formed incrementally for  20 cycles.
 Integral accuracy reduced to 1.0D-05 until final iterations.

 Cycle   1  Pass 0  IDiag  1:
 FoFJK:  IHMeth= 1 ICntrl=       0 DoSepK=F KAlg= 0 I1Cent=           0 FoldK=F
 IRaf= 770000000 NMat=       1 IRICut=       1 DoRegI=T DoRafI=F ISym2E= 0 IDoP0=0 IntGTp=1.
 FoFCou: FMM=T IPFlag=           0 FMFlag=      100000 FMFlg1=        2001
         NFxFlg=           0 DoJE=F BraDBF=F KetDBF=F FulRan=T
         wScrn=  0.000000 ICntrl=         0 IOpCl=  0 I1Cent=           0 NGrid=           0
         NMat0=    1 NMatS0=      1 NMatT0=    0 NMatD0=    1 NMtDS0=    0 NMtDT0=    0
 Symmetry not used in FoFCou.
 FMM levels:  10  Number of levels for PrismC:   9
 E= -2868.89501855771    
 DIIS: error= 2.80D-04 at cycle   1 NSaved=   1.
 NSaved= 1 IEnMin= 1 EnMin= -2868.89501855771     IErMin= 1 ErrMin= 2.80D-04
 ErrMax= 2.80D-04  0.00D+00 EMaxC= 1.00D-01 BMatC= 6.77D-05 BMatP= 6.77D-05
 IDIUse=3 WtCom= 9.97D-01 WtEn= 2.80D-03
 Coeff-Com:  0.100D+01
 Coeff-En:   0.100D+01
 Coeff:      0.100D+01
 Gap=     2.026 Goal=   None    Shift=    0.000
 RMSDP=1.17D-04 MaxDP=3.97D-03              OVMax= 5.74D-04

 Cycle   2  Pass 0  IDiag  1:
 RMSU=  1.17D-04    CP:  1.00D+00
 E= -2868.89489662757     Delta-E=        0.000121930130 Rises=F Damp=F
 DIIS: error= 1.58D-05 at cycle   2 NSaved=   2.
 NSaved= 2 IEnMin= 1 EnMin= -2868.89501855771     IErMin= 2 ErrMin= 1.58D-05
 ErrMax= 1.58D-05  0.00D+00 EMaxC= 1.00D-01 BMatC= 9.38D-07 BMatP= 6.77D-05
 IDIUse=1 WtCom= 1.00D+00 WtEn= 0.00D+00
 Coeff-Com: -0.250D-01 0.102D+01
 Coeff:     -0.250D-01 0.102D+01
 Gap=     0.207 Goal=   None    Shift=    0.000
 RMSDP=4.66D-06 MaxDP=2.63D-04 DE= 1.22D-04 OVMax= 2.37D-04

 Initial convergence to 1.0D-05 achieved.  Increase integral accuracy.
 Cycle   3  Pass 1  IDiag  1:
 E= -2868.89494658097     Delta-E=       -0.000049953400 Rises=F Damp=F
 DIIS: error= 2.77D-04 at cycle   1 NSaved=   1.
 NSaved= 1 IEnMin= 1 EnMin= -2868.89494658097     IErMin= 1 ErrMin= 2.77D-04
 ErrMax= 2.77D-04  0.00D+00 EMaxC= 1.00D-01 BMatC= 5.54D-05 BMatP= 5.54D-05
 IDIUse=3 WtCom= 9.97D-01 WtEn= 2.77D-03
 Coeff-Com:  0.100D+01
 Coeff-En:   0.100D+01
 Coeff:      0.100D+01
 Gap=     0.207 Goal=   None    Shift=    0.000
 RMSDP=4.66D-06 MaxDP=2.63D-04 DE=-5.00D-05 OVMax= 5.06D-04

 Cycle   4  Pass 1  IDiag  1:
 RMSU=  1.17D-04    CP:  1.00D+00
 E= -2868.89499220016     Delta-E=       -0.000045619190 Rises=F Damp=F
 DIIS: error= 2.31D-05 at cycle   2 NSaved=   2.
 NSaved= 2 IEnMin= 2 EnMin= -2868.89499220016     IErMin= 2 ErrMin= 2.31D-05
 ErrMax= 2.31D-05  0.00D+00 EMaxC= 1.00D-01 BMatC= 1.41D-06 BMatP= 5.54D-05
 IDIUse=1 WtCom= 1.00D+00 WtEn= 0.00D+00
 Coeff-Com:  0.211D-01 0.979D+00
 Coeff:      0.211D-01 0.979D+00
 Gap=     0.207 Goal=   None    Shift=    0.000
 RMSDP=3.69D-06 MaxDP=4.23D-04 DE=-4.56D-05 OVMax= 3.71D-04

 Cycle   5  Pass 1  IDiag  1:
 RMSU=  2.22D-06    CP:  1.00D+00  1.03D+00
 E= -2868.89499157958     Delta-E=        0.000000620585 Rises=F Damp=F
 DIIS: error= 3.02D-05 at cycle   3 NSaved=   3.
 NSaved= 3 IEnMin= 2 EnMin= -2868.89499220016     IErMin= 2 ErrMin= 2.31D-05
 ErrMax= 3.02D-05  0.00D+00 EMaxC= 1.00D-01 BMatC= 2.29D-06 BMatP= 1.41D-06
 IDIUse=1 WtCom= 1.00D+00 WtEn= 0.00D+00
 Coeff-Com: -0.126D-01 0.567D+00 0.446D+00
 Coeff:     -0.126D-01 0.567D+00 0.446D+00
 Gap=     0.207 Goal=   None    Shift=    0.000
 RMSDP=1.19D-06 MaxDP=2.45D-04 DE= 6.21D-07 OVMax= 2.02D-04

 Cycle   6  Pass 1  IDiag  1:
 RMSU=  5.87D-07    CP:  1.00D+00  1.03D+00  5.41D-01
 E= -2868.89499329252     Delta-E=       -0.000001712935 Rises=F Damp=F
 DIIS: error= 2.87D-06 at cycle   4 NSaved=   4.
 NSaved= 4 IEnMin= 4 EnMin= -2868.89499329252     IErMin= 4 ErrMin= 2.87D-06
 ErrMax= 2.87D-06  0.00D+00 EMaxC= 1.00D-01 BMatC= 1.85D-08 BMatP= 1.41D-06
 IDIUse=1 WtCom= 1.00D+00 WtEn= 0.00D+00
 Coeff-Com: -0.655D-02 0.271D+00 0.222D+00 0.514D+00
 Coeff:     -0.655D-02 0.271D+00 0.222D+00 0.514D+00
 Gap=     0.207 Goal=   None    Shift=    0.000
 RMSDP=1.53D-07 MaxDP=1.71D-05 DE=-1.71D-06 OVMax= 3.62D-05

 Cycle   7  Pass 1  IDiag  1:
 RMSU=  1.42D-07    CP:  1.00D+00  1.03D+00  5.60D-01  9.46D-01
 E= -2868.89499330604     Delta-E=       -0.000000013521 Rises=F Damp=F
 DIIS: error= 1.29D-06 at cycle   5 NSaved=   5.
 NSaved= 5 IEnMin= 5 EnMin= -2868.89499330604     IErMin= 5 ErrMin= 1.29D-06
 ErrMax= 1.29D-06  0.00D+00 EMaxC= 1.00D-01 BMatC= 2.02D-09 BMatP= 1.85D-08
 IDIUse=1 WtCom= 1.00D+00 WtEn= 0.00D+00
 Coeff-Com:  0.539D-04-0.118D-01-0.525D-02 0.231D+00 0.786D+00
 Coeff:      0.539D-04-0.118D-01-0.525D-02 0.231D+00 0.786D+00
 Gap=     0.207 Goal=   None    Shift=    0.000
 RMSDP=6.10D-08 MaxDP=7.60D-06 DE=-1.35D-08 OVMax= 1.94D-05

 Cycle   8  Pass 1  IDiag  1:
 RMSU=  4.15D-08    CP:  1.00D+00  1.03D+00  5.62D-01  1.01D+00  8.52D-01
 E= -2868.89499330765     Delta-E=       -0.000000001610 Rises=F Damp=F
 DIIS: error= 7.69D-07 at cycle   6 NSaved=   6.
 NSaved= 6 IEnMin= 6 EnMin= -2868.89499330765     IErMin= 6 ErrMin= 7.69D-07
 ErrMax= 7.69D-07  0.00D+00 EMaxC= 1.00D-01 BMatC= 4.92D-10 BMatP= 2.02D-09
 IDIUse=1 WtCom= 1.00D+00 WtEn= 0.00D+00
 Coeff-Com:  0.597D-03-0.305D-01-0.223D-01 0.928D-01 0.468D+00 0.491D+00
 Coeff:      0.597D-03-0.305D-01-0.223D-01 0.928D-01 0.468D+00 0.491D+00
 Gap=     0.207 Goal=   None    Shift=    0.000
 RMSDP=2.11D-08 MaxDP=3.42D-06 DE=-1.61D-09 OVMax= 8.26D-06

 Cycle   9  Pass 1  IDiag  1:
 RMSU=  1.83D-08    CP:  1.00D+00  1.03D+00  5.63D-01  1.01D+00  8.83D-01
                    CP:  7.97D-01
 E= -2868.89499330777     Delta-E=       -0.000000000127 Rises=F Damp=F
 DIIS: error= 1.65D-07 at cycle   7 NSaved=   7.
 NSaved= 7 IEnMin= 7 EnMin= -2868.89499330777     IErMin= 7 ErrMin= 1.65D-07
 ErrMax= 1.65D-07  0.00D+00 EMaxC= 1.00D-01 BMatC= 3.19D-11 BMatP= 4.92D-10
 IDIUse=1 WtCom= 1.00D+00 WtEn= 0.00D+00
 Coeff-Com:  0.277D-03-0.131D-01-0.997D-02 0.155D-01 0.128D+00 0.234D+00
 Coeff-Com:  0.645D+00
 Coeff:      0.277D-03-0.131D-01-0.997D-02 0.155D-01 0.128D+00 0.234D+00
 Coeff:      0.645D+00
 Gap=     0.207 Goal=   None    Shift=    0.000
 RMSDP=7.27D-09 MaxDP=8.66D-07 DE=-1.27D-10 OVMax= 2.14D-06

 SCF Done:  E(RM062X) =  -2868.89499331     A.U. after    9 cycles
            NFock=  9  Conv=0.73D-08     -V/T= 2.0079
 KE= 2.846365912135D+03 PE=-2.512574474370D+04 EE= 1.019317808915D+04
 Leave Link  502 at Sun Nov  6 14:44:29 2022, MaxMem=  8053063680 cpu:            3414.5 elap:             213.9
 (Enter /project/chenjingdan/g16/l801.exe)
 DoSCS=F DFT=T ScalE2(SS,OS)=  1.000000  1.000000
 Range of M.O.s used for correlation:     1  1084
 NBasis=  1084 NAE=   208 NBE=   208 NFC=     0 NFV=     0
 NROrb=   1084 NOA=   208 NOB=   208 NVA=   876 NVB=   876
 Leave Link  801 at Sun Nov  6 14:44:29 2022, MaxMem=  8053063680 cpu:               0.8 elap:               0.1
 (Enter /project/chenjingdan/g16/l1101.exe)
 Leave Link 1101 at Sun Nov  6 14:44:29 2022, MaxMem=  8053063680 cpu:               0.6 elap:               0.1
 (Enter /project/chenjingdan/g16/l1102.exe)
 Symmetrizing basis deriv contribution to polar:
 IMax=3 JMax=2 DiffMx= 0.00D+00
 Leave Link 1102 at Sun Nov  6 14:44:29 2022, MaxMem=  8053063680 cpu:               2.5 elap:               0.3
 (Enter /project/chenjingdan/g16/l1110.exe)
 Leave Link 1110 at Sun Nov  6 14:44:29 2022, MaxMem=  8053063680 cpu:               0.7 elap:               0.1
 (Enter /project/chenjingdan/g16/l1002.exe)
 Minotr:  Closed shell wavefunction.
 Leave Link 1002 at Sun Nov  6 14:44:30 2022, MaxMem=  8053063680 cpu:               0.4 elap:               0.1
 (Enter /project/chenjingdan/g16/l701.exe)
 ... and contract with generalized density number  0.
 Compute integral first derivatives.
 Leave Link  701 at Sun Nov  6 14:44:30 2022, MaxMem=  8053063680 cpu:               9.2 elap:               0.6
 (Enter /project/chenjingdan/g16/l702.exe)
 L702 exits ... SP integral derivatives will be done elsewhere.
 Leave Link  702 at Sun Nov  6 14:44:30 2022, MaxMem=  8053063680 cpu:               0.4 elap:               0.0
 (Enter /project/chenjingdan/g16/l703.exe)
 Integral derivatives from FoFJK, PRISM(SPDF).
 Compute integral first derivatives, UseDBF=F ICtDFT=           0.
 Calling FoFJK, ICntrl=      2127 FMM=T ISym2X=0 I1Cent= 0 IOpClX= 0 NMat=1 NMatS=1 NMatT=0.
 FoFJK:  IHMeth= 1 ICntrl=    2127 DoSepK=F KAlg= 0 I1Cent=           0 FoldK=F
 IRaf=         0 NMat=       1 IRICut=       1 DoRegI=T DoRafI=F ISym2E= 0 IDoP0=0 IntGTp=1.
 FoFCou: FMM=T IPFlag=           0 FMFlag=      100000 FMFlg1=        2001
         NFxFlg=           0 DoJE=F BraDBF=F KetDBF=F FulRan=T
         wScrn=  0.000000 ICntrl=      2127 IOpCl=  0 I1Cent=           0 NGrid=           0
         NMat0=    1 NMatS0=      1 NMatT0=    0 NMatD0=    1 NMtDS0=    0 NMtDT0=    0
 Symmetry not used in FoFCou.
 FMM levels:  10  Number of levels for PrismC:   9
 Leave Link  703 at Sun Nov  6 14:45:41 2022, MaxMem=  8053063680 cpu:            1132.3 elap:              70.9
 (Enter /project/chenjingdan/g16/l716.exe)
 Dipole        =-1.43829917D+00 3.61489648D-01-1.90305367D-01
 Polarizability= 0.00000000D+00 0.00000000D+00 0.00000000D+00
                 0.00000000D+00 0.00000000D+00 0.00000000D+00
 -------------------------------------------------------------------
 Center     Atomic                   Forces (Hartrees/Bohr)
 Number     Number              X              Y              Z
 -------------------------------------------------------------------
      1        8           0.000106447    0.000258635    0.000229182
      2        7          -0.000008107    0.000086275    0.000322766
      3        8          -0.000184078   -0.000221753   -0.000468342
      4        8           0.000435420    0.000227486    0.000076608
      5        6           0.000611716    0.000229775   -0.000069501
      6        7          -0.000041292   -0.000060729    0.000012913
      7        6           0.000068814    0.000010412    0.000000328
      8        6           0.000128245    0.000109391    0.000040792
      9        6           0.000237252    0.000114016    0.000009464
     10        6           0.000319982    0.000313971    0.000029220
     11        6           0.000250768    0.000103259    0.000099672
     12        6           0.000187692    0.000081786   -0.000099521
     13        6           0.000126145    0.000027290    0.000109239
     14        6           0.000208361    0.000079448    0.000110759
     15        6           0.000102544    0.000036803   -0.000106525
     16        8          -0.000082586   -0.000155093    0.000116818
     17        8          -0.000146208   -0.000028489   -0.000101458
     18        1          -0.000362215   -0.000345181    0.000149813
     19        1           0.000397635    0.000233917   -0.000297378
     20        1           0.000292563    0.000127613    0.000338597
     21        1           0.000020235    0.000003514   -0.000011283
     22        1           0.000022396    0.000007423   -0.000003480
     23        1           0.000032668    0.000012271   -0.000007916
     24        1           0.000006395    0.000003139   -0.000008773
     25        1           0.000002188    0.000001462    0.000005949
     26        1           0.000009342    0.000003849    0.000007734
     27        1           0.000003611    0.000002953   -0.000009519
     28        8           0.000085729    0.000174696   -0.000517749
     29        8          -0.000192650   -0.000069204   -0.000013345
     30        6          -0.000011600   -0.000100875   -0.000000722
     31        8          -0.000142204    0.000050893   -0.000027988
     32        6          -0.000137992   -0.000051553    0.000048995
     33        6          -0.000074297    0.000021402    0.000040879
     34        8          -0.000118814    0.000034809   -0.000776503
     35        6           0.000062706    0.000020501    0.000168698
     36        6          -0.000098464    0.000063006    0.000059857
     37        6           0.000035527   -0.000173013   -0.000097308
     38        6          -0.000021157   -0.000114791   -0.000022156
     39        6          -0.000053930   -0.000071145    0.000037035
     40        6          -0.000033627   -0.000054219    0.000042816
     41        6          -0.000088182   -0.000070258    0.000025857
     42        6          -0.000049178   -0.000096998    0.000001484
     43        6          -0.000052988   -0.000057598    0.000061430
     44        6          -0.000076274   -0.000082558   -0.000000560
     45        6          -0.000064108   -0.000069970    0.000011501
     46        6          -0.000053529   -0.000079048    0.000058271
     47        6          -0.000104128   -0.000068778    0.000026418
     48        6          -0.000046873   -0.000115953    0.000068082
     49        6          -0.000029109   -0.000112896   -0.000029352
     50        6          -0.000034848   -0.000057329    0.000046387
     51        6          -0.000051064   -0.000059800    0.000023113
     52        6          -0.000074075    0.000000446    0.000040110
     53        6          -0.000077396   -0.000006610    0.000046922
     54        6          -0.000018878   -0.000112094    0.000079171
     55        6          -0.000072126   -0.000075215    0.000012166
     56        6          -0.000031863   -0.000047848    0.000060459
     57        6          -0.000089303    0.000029750    0.000039675
     58        6          -0.000029939   -0.000076360    0.000070166
     59        6          -0.000093382    0.000043236    0.000044864
     60        6          -0.000046501   -0.000007997    0.000047464
     61        6          -0.000092767    0.000044626    0.000048567
     62        6          -0.000091131    0.000031889    0.000042496
     63        6          -0.000085199    0.000035255    0.000039999
     64        6          -0.000091620    0.000037212    0.000041021
     65        6          -0.000039036   -0.000066863    0.000068079
     66        6          -0.000030298   -0.000053433    0.000068666
     67       15          -0.000257326    0.000182749   -0.000339966
     68        1           0.000029452    0.000022079   -0.000001063
     69        1          -0.000001335   -0.000010527   -0.000011902
     70        1          -0.000010786   -0.000001714    0.000004421
     71        1           0.000011114   -0.000005316    0.000004904
     72        1          -0.000007787   -0.000001803    0.000004169
     73        1          -0.000004528   -0.000003204    0.000003193
     74        1          -0.000007411   -0.000001512    0.000000939
     75        1          -0.000011428    0.000008452   -0.000010927
     76        1          -0.000008000    0.000002868    0.000017142
     77        1           0.000002608   -0.000014084   -0.000005399
     78        1           0.000038733    0.000193129   -0.000080560
     79        1           0.000061987   -0.000193354   -0.000158422
     80        1          -0.000233940   -0.000020992    0.000085838
     81        1          -0.000004202    0.000003657    0.000001166
     82        1          -0.000004108    0.000003017    0.000002350
     83        1          -0.000004729    0.000002867    0.000003112
     84        1           0.000004086   -0.000014121   -0.000006173
     85        1           0.000004965   -0.000003053   -0.000011018
     86        1          -0.000000738   -0.000004613   -0.000001785
     87        1           0.000000877   -0.000005422   -0.000003349
     88        1          -0.000000931   -0.000001707    0.000001856
     89        1          -0.000005396   -0.000002126    0.000001293
     90        1          -0.000002987   -0.000005996    0.000002985
     91        1          -0.000001619   -0.000005635    0.000004005
     92        1          -0.000002661   -0.000001614    0.000000892
     93        1          -0.000000715   -0.000006370    0.000004178
     94        1           0.000000359   -0.000004978    0.000004823
     95        1          -0.000000845   -0.000003406    0.000003249
     96        1          -0.000004384    0.000002296    0.000001340
     97        1          -0.000002052   -0.000000880    0.000002700
     98        1          -0.000003887    0.000001018    0.000001415
     99        1          -0.000001433   -0.000002786    0.000003728
    100        1          -0.000000993   -0.000002268    0.000002638
    101        1          -0.000000535   -0.000001343    0.000003580
    102        1          -0.000000789   -0.000002065    0.000003522
 -------------------------------------------------------------------
 Cartesian Forces:  Max     0.000776503 RMS     0.000121142
 Z-matrix is all fixed cartesians, so copy forces.
 Leave Link  716 at Sun Nov  6 14:45:41 2022, MaxMem=  8053063680 cpu:               0.6 elap:               0.1
 (Enter /project/chenjingdan/g16/l123.exe)
 IRC-IRC-IRC-IRC-IRC-IRC-IRC-IRC-IRC-IRC-IRC-IRC-IRC-IRC-IRC-IRC-IRC-IRC
 Pt 82 Step number   1 out of a maximum of  20
 Point Number:  42          Path Number:   1
   CHANGE IN THE REACTION COORDINATE =    0.10875
   NET REACTION COORDINATE UP TO THIS POINT =    4.60472
  # OF POINTS ALONG THE PATH =  42
  # OF STEPS =   1

 Calculating another point on the path.
 Point Number 43 in FORWARD path direction.
 Using LQA Reaction Path Following.
   LQA: T_Est iteration completed in    4 iterations.
 IRC-IRC-IRC-IRC-IRC-IRC-IRC-IRC-IRC-IRC-IRC-IRC-IRC-IRC-IRC-IRC-IRC-IRC
 Leave Link  123 at Sun Nov  6 14:45:42 2022, MaxMem=  8053063680 cpu:               5.5 elap:               0.4
 (Enter /project/chenjingdan/g16/l202.exe)
 Symmetry turned off by external request.
 Stoichiometry    C45H45N2O9P
 Framework group  C1[X(C45H45N2O9P)]
 Deg. of freedom   300
 Full point group                 C1      NOp   1
                          Input orientation:                          
 ---------------------------------------------------------------------
 Center     Atomic      Atomic             Coordinates (Angstroms)
 Number     Number       Type             X           Y           Z
 ---------------------------------------------------------------------
      1          8           0        0.841660    1.795912   -3.305439
      2          7           0        1.870186    2.202697   -0.215757
      3          8           0        2.889890    2.585867   -3.071409
      4          8           0        4.042988    2.555480   -0.758424
      5          6           0        1.651664    4.495641   -1.175604
      6          7           0        4.982129   -1.507923    4.083168
      7          6           0        4.494760   -0.596144    3.031856
      8          6           0        1.664347    2.408808   -2.640888
      9          6           0        3.590693    1.099201    1.071065
     10          6           0        1.296013    3.013440   -1.281679
     11          6           0        3.182431    2.013535   -0.044382
     12          6           0        2.698293    0.212304    1.684013
     13          6           0        5.401926    0.266785    2.433246
     14          6           0        4.935799    1.119507    1.441773
     15          6           0        3.152130   -0.642839    2.680110
     16          8           0        6.159320   -1.439028    4.381865
     17          8           0        4.176153   -2.269666    4.583003
     18          1           0       -0.178380    0.978572   -2.481729
     19          1           0        1.170235    1.742755    0.365034
     20          1           0        3.474617    2.804756   -2.290132
     21          1           0        2.730864    4.652678   -1.193196
     22          1           0        1.197049    5.049128   -2.000907
     23          1           0        1.255299    4.885610   -0.236011
     24          1           0        1.658101    0.145498    1.373259
     25          1           0        6.438135    0.256628    2.746196
     26          1           0        5.603096    1.806514    0.933300
     27          1           0        2.493147   -1.348275    3.170411
     28          8           0       -0.840842    0.346543   -2.050972
     29          8           0       -2.679010    0.060529   -0.533211
     30          6           0       -2.731298    6.346387   -0.172815
     31          8           0       -0.551420   -1.257357   -0.060530
     32          6           0       -5.106805    1.952713   -0.776071
     33          6           0        5.161080    0.023732   -2.280662
     34          8           0       -0.526279    1.189727    0.423200
     35          6           0        0.719103   -1.184297   -4.290029
     36          6           0        2.033834   -2.960918    0.298852
     37          6           0       -1.739889    2.561341    2.986000
     38          6           0       -2.296821    4.392544    1.366214
     39          6           0       -3.430138   -1.526342    1.082645
     40          6           0       -4.326582   -0.774770    3.200970
     41          6           0       -3.870189    4.106174   -0.410630
     42          6           0       -2.963311    4.921682    0.262156
     43          6           0       -2.093873   -2.965184   -0.735510
     44          6           0       -3.427676    2.277761    1.102438
     45          6           0       -3.270177   -0.204337    0.700554
     46          6           0       -3.176861   -2.816081    0.320930
     47          6           0       -4.115103    2.792277   -0.010071
     48          6           0       -4.420409   -3.266869   -0.496402
     49          6           0       -2.514278    3.086499    1.802710
     50          6           0       -3.926473   -1.804422    2.359181
     51          6           0       -4.198234    0.545122    2.771766
     52          6           0        0.060155   -2.734342   -1.854929
     53          6           0       -0.863899   -2.343260   -0.878420
     54          6           0       -3.889872   -4.379613   -1.421027
     55          6           0       -3.644665    0.862726    1.526734
     56          6           0       -1.573809   -4.358502   -2.647195
     57          6           0        1.374839   -2.037708   -1.975549
     58          6           0       -2.461688   -3.945628   -1.662656
     59          6           0        3.527054   -1.454806   -1.044672
     60          6           0       -0.312701   -3.768356   -2.718907
     61          6           0        2.313567   -2.130619   -0.929257
     62          6           0        2.891331   -0.603654   -3.187612
     63          6           0        1.671892   -1.282477   -3.123125
     64          6           0        3.832118   -0.676411   -2.162917
     65          6           0       -2.945587   -3.793512    1.510168
     66          6           0       -3.895496   -3.293777    2.614686
     67         15           0       -1.078493    0.194475   -0.523984
     68          1           0        0.215532    2.896587   -1.177369
     69          1           0       -1.719109    6.676580    0.075114
     70          1           0       -2.875134    6.460415   -1.250112
     71          1           0       -3.429681    7.026394    0.326154
     72          1           0       -5.730043    2.582021   -1.414970
     73          1           0       -5.760178    1.394447   -0.099760
     74          1           0       -4.592628    1.225222   -1.411896
     75          1           0        5.524125    0.350874   -1.302820
     76          1           0        5.912153   -0.645534   -2.713379
     77          1           0        5.083142    0.903093   -2.924253
     78          1           0        0.904396   -0.261909   -4.844823
     79          1           0        0.856677   -2.027703   -4.976909
     80          1           0       -0.322967   -1.189130   -3.962851
     81          1           0        1.270439   -2.490555    0.929124
     82          1           0        2.940528   -3.081622    0.896612
     83          1           0        1.663061   -3.954153    0.029296
     84          1           0       -2.366986    2.481492    3.879498
     85          1           0       -1.333520    1.570682    2.770539
     86          1           0       -0.910269    3.231577    3.222827
     87          1           0       -1.580353    5.012268    1.901996
     88          1           0       -4.720253   -0.991052    4.189581
     89          1           0       -4.404451    4.500681   -1.272396
     90          1           0       -4.766518   -2.419704   -1.097875
     91          1           0       -5.244111   -3.587398    0.147716
     92          1           0       -4.508792    1.359552    3.419419
     93          1           0       -4.460110   -4.466278   -2.349688
     94          1           0       -3.925289   -5.358543   -0.927649
     95          1           0       -1.860036   -5.123159   -3.363054
     96          1           0        4.253110   -1.533527   -0.236312
     97          1           0        0.394599   -4.084414   -3.479809
     98          1           0        3.100099    0.014174   -4.057893
     99          1           0       -3.111800   -4.836334    1.226269
    100          1           0       -1.907360   -3.693518    1.844380
    101          1           0       -3.543335   -3.538606    3.620183
    102          1           0       -4.896030   -3.730194    2.506922
 ---------------------------------------------------------------------
 Rotational constants (GHZ):           0.0578396           0.0433979           0.0383118
 Leave Link  202 at Sun Nov  6 14:45:42 2022, MaxMem=  8053063680 cpu:               0.1 elap:               0.0
 (Enter /project/chenjingdan/g16/l301.exe)
 Standard basis: 6-31G(d,p) (6D, 7F)
 Ernie: Thresh=  0.10000D-02 Tol=  0.10000D-05 Strict=F.
  1084 basis functions,  1935 primitive gaussians,  1084 cartesian basis functions
   208 alpha electrons      208 beta electrons
       nuclear repulsion energy      9216.5858001181 Hartrees.
 IExCor= 4336 DFT=T Ex+Corr=M062X ExCW=0 ScaHFX=  0.540000
 ScaDFX=  1.000000  1.000000  1.000000  1.000000 ScalE2=  1.000000  1.000000
 IRadAn=      5 IRanWt=     -1 IRanGd=            0 ICorTp=0 IEmpDi=  4
 NAtoms=  102 NActive=  102 NUniq=  102 SFac= 1.00D+00 NAtFMM=   60 NAOKFM=T Big=T
 Integral buffers will be    131072 words long.
 Raffenetti 2 integral format.
 Two-electron integral symmetry is turned off.
 Leave Link  301 at Sun Nov  6 14:45:42 2022, MaxMem=  8053063680 cpu:               0.9 elap:               0.1
 (Enter /project/chenjingdan/g16/l302.exe)
 NPDir=0 NMtPBC=     1 NCelOv=     1 NCel=       1 NClECP=     1 NCelD=      1
         NCelK=      1 NCelE2=     1 NClLst=     1 CellRange=     0.0.
 One-electron integrals computed using PRISM.
 NBasis=  1084 RedAO= T EigKep=  2.34D-04  NBF=  1084
 NBsUse=  1084 1.00D-06 EigRej= -1.00D+00 NBFU=  1084
 Precomputing XC quadrature grid using
 IXCGrd= 4 IRadAn=           5 IRanWt=          -1 IRanGd=           0 AccXCQ= 0.00D+00.
 Generated NRdTot=       0 NPtTot=           0 NUsed=           0 NTot=          32
 NSgBfM=  1033  1033  1033  1033  1033 MxSgAt=   102 MxSgA2=   102.
 Leave Link  302 at Sun Nov  6 14:45:44 2022, MaxMem=  8053063680 cpu:              36.9 elap:               2.4
 (Enter /project/chenjingdan/g16/l303.exe)
 DipDrv:  MaxL=1.
 Leave Link  303 at Sun Nov  6 14:45:44 2022, MaxMem=  8053063680 cpu:               2.2 elap:               0.2
 (Enter /project/chenjingdan/g16/l401.exe)
 Initial guess from the checkpoint file:  "S_ts3_irc.chk"
 B after Tr=     0.000039   -0.000010    0.000012
         Rot=    1.000000    0.000002    0.000002   -0.000001 Ang=   0.00 deg.
 Guess basis will be translated and rotated to current coordinates.
 JPrj=2 DoOrth=T DoCkMO=T.
 Generating alternative initial guess.
 ExpMin= 9.98D-02 ExpMax= 1.94D+04 ExpMxC= 2.91D+03 IAcc=3 IRadAn=         5 AccDes= 0.00D+00
 Harris functional with IExCor= 1009 and IRadAn=       5 diagonalized for initial guess.
 HarFok:  IExCor= 1009 AccDes= 0.00D+00 IRadAn=         5 IDoV= 1 UseB2=F ITyADJ=14
 ICtDFT=  3500011 ScaDFX=  1.000000  1.000000  1.000000  1.000000
 FoFCou: FMM=F IPFlag=           0 FMFlag=      100000 FMFlg1=        2001
         NFxFlg=           0 DoJE=T BraDBF=F KetDBF=T FulRan=T
         wScrn=  0.000000 ICntrl=       500 IOpCl=  0 I1Cent=   200000004 NGrid=           0
         NMat0=    1 NMatS0=      1 NMatT0=    0 NMatD0=    1 NMtDS0=    0 NMtDT0=    0
 Symmetry not used in FoFCou.
 Harris En= -2867.63046539487    
 Leave Link  401 at Sun Nov  6 14:45:52 2022, MaxMem=  8053063680 cpu:             114.9 elap:               7.3
 (Enter /project/chenjingdan/g16/l502.exe)
 Two-electron integral symmetry not used.
 Closed shell SCF:
 Using DIIS extrapolation, IDIIS=  1040.
 NGot=  8053063680 LenX=  8050685130 LenY=  8049508990
 Requested convergence on RMS density matrix=1.00D-08 within 128 cycles.
 Requested convergence on MAX density matrix=1.00D-06.
[...]
 Alpha virt. eigenvalues --    0.82864   0.83168   0.83244   0.83508   0.83767
 Alpha virt. eigenvalues --    0.84028   0.84524   0.84879   0.85358   0.85656
 Alpha virt. eigenvalues --    0.85898   0.86195   0.86341   0.86715   0.87038
 Alpha virt. eigenvalues --    0.87296   0.87689   0.87892   0.88217   0.88658
 Alpha virt. eigenvalues --    0.88792   0.89151   0.89282   0.89488   0.89666
 Alpha virt. eigenvalues --    0.89767   0.90271   0.90648   0.90972   0.91537
 Alpha virt. eigenvalues --    0.91959   0.92385   0.92447   0.92648   0.92877
 Alpha virt. eigenvalues --    0.93230   0.93319   0.93395   0.93772   0.94226
 Alpha virt. eigenvalues --    0.94535   0.94596   0.95165   0.95252   0.95615
 Alpha virt. eigenvalues --    0.95731   0.96081   0.96419   0.96772   0.97059
 Alpha virt. eigenvalues --    0.97268   0.97529   0.98003   0.98128   0.98512
 Alpha virt. eigenvalues --    0.98699   0.98793   0.99226   0.99518   0.99791
 Alpha virt. eigenvalues --    1.00207   1.00702   1.00745   1.01315   1.01709
 Alpha virt. eigenvalues --    1.02139   1.02396   1.02554   1.02862   1.03370
 Alpha virt. eigenvalues --    1.03416   1.03906   1.04398   1.05129   1.05399
 Alpha virt. eigenvalues --    1.05673   1.05996   1.06615   1.06849   1.07209
 Alpha virt. eigenvalues --    1.07599   1.07899   1.08414   1.08966   1.09466
 Alpha virt. eigenvalues --    1.09743   1.10179   1.10306   1.10695   1.10838
 Alpha virt. eigenvalues --    1.11689   1.11747   1.12241   1.12586   1.13132
 Alpha virt. eigenvalues --    1.13383   1.13827   1.14580   1.15107   1.15389
 Alpha virt. eigenvalues --    1.16013   1.16279   1.16897   1.17976   1.18614
 Alpha virt. eigenvalues --    1.19165   1.19388   1.19449   1.20279   1.20644
 Alpha virt. eigenvalues --    1.21322   1.22125   1.22302   1.22801   1.22931
 Alpha virt. eigenvalues --    1.23388   1.23950   1.24328   1.24514   1.25380
 Alpha virt. eigenvalues --    1.25597   1.26040   1.26431   1.27208   1.27543
 Alpha virt. eigenvalues --    1.27742   1.28250   1.29176   1.29353   1.30027
 Alpha virt. eigenvalues --    1.30305   1.30384   1.30847   1.31346   1.31677
 Alpha virt. eigenvalues --    1.32119   1.32572   1.33443   1.33707   1.33970
 Alpha virt. eigenvalues --    1.34726   1.35172   1.36101   1.36554   1.37041
 Alpha virt. eigenvalues --    1.37278   1.37457   1.38059   1.38938   1.39099
 Alpha virt. eigenvalues --    1.39411   1.39654   1.40120   1.40218   1.40762
 Alpha virt. eigenvalues --    1.41160   1.41359   1.41529   1.42466   1.42831
 Alpha virt. eigenvalues --    1.43289   1.43353   1.43643   1.44116   1.44590
 Alpha virt. eigenvalues --    1.45167   1.45475   1.45890   1.46048   1.46651
 Alpha virt. eigenvalues --    1.46894   1.47318   1.47743   1.47930   1.48451
 Alpha virt. eigenvalues --    1.49028   1.49534   1.50094   1.51332   1.51841
 Alpha virt. eigenvalues --    1.52128   1.53180   1.53576   1.54063   1.54677
 Alpha virt. eigenvalues --    1.55180   1.55417   1.56426   1.57150   1.58862
 Alpha virt. eigenvalues --    1.59229   1.60317   1.60865   1.61659   1.62462
 Alpha virt. eigenvalues --    1.62792   1.64012   1.64406   1.65018   1.66696
 Alpha virt. eigenvalues --    1.66876   1.67207   1.68908   1.69500   1.70087
 Alpha virt. eigenvalues --    1.70807   1.71392   1.71746   1.72654   1.73064
 Alpha virt. eigenvalues --    1.73224   1.73750   1.73814   1.74135   1.74544
 Alpha virt. eigenvalues --    1.74832   1.75803   1.76484   1.76702   1.77199
 Alpha virt. eigenvalues --    1.77509   1.77627   1.78410   1.78937   1.79119
 Alpha virt. eigenvalues --    1.79584   1.79842   1.80133   1.80647   1.80975
 Alpha virt. eigenvalues --    1.81289   1.81735   1.81978   1.82154   1.82544
 Alpha virt. eigenvalues --    1.82731   1.83305   1.83339   1.83783   1.84007
 Alpha virt. eigenvalues --    1.84475   1.84719   1.85099   1.85108   1.85754
 Alpha virt. eigenvalues --    1.85817   1.85947   1.86440   1.86820   1.86976
 Alpha virt. eigenvalues --    1.87344   1.87521   1.87963   1.88420   1.88936
 Alpha virt. eigenvalues --    1.88974   1.89837   1.89879   1.90385   1.90530
 Alpha virt. eigenvalues --    1.90677   1.90837   1.91308   1.91588   1.92017
 Alpha virt. eigenvalues --    1.92432   1.92774   1.93109   1.93727   1.93845
 Alpha virt. eigenvalues --    1.93919   1.94274   1.95335   1.95482   1.95705
 Alpha virt. eigenvalues --    1.96126   1.96779   1.97195   1.97496   1.98159
 Alpha virt. eigenvalues --    1.98479   1.98707   1.99017   1.99293   2.00287
 Alpha virt. eigenvalues --    2.00509   2.00922   2.01055   2.01489   2.01787
 Alpha virt. eigenvalues --    2.02150   2.02396   2.02773   2.03887   2.04258
 Alpha virt. eigenvalues --    2.04442   2.04618   2.04961   2.05422   2.06170
 Alpha virt. eigenvalues --    2.06362   2.06685   2.07336   2.07661   2.07933
 Alpha virt. eigenvalues --    2.08341   2.08668   2.08952   2.09052   2.09229
 Alpha virt. eigenvalues --    2.09383   2.09871   2.10256   2.10453   2.11006
 Alpha virt. eigenvalues --    2.11574   2.11731   2.12059   2.12438   2.12483
 Alpha virt. eigenvalues --    2.13113   2.13289   2.13848   2.13876   2.14079
 Alpha virt. eigenvalues --    2.14239   2.14378   2.14711   2.15025   2.15294
 Alpha virt. eigenvalues --    2.15859   2.16031   2.16200   2.16371   2.16567
 Alpha virt. eigenvalues --    2.16945   2.17392   2.17866   2.17960   2.18271
 Alpha virt. eigenvalues --    2.18556   2.18745   2.19191   2.19731   2.19851
 Alpha virt. eigenvalues --    2.20154   2.20695   2.21166   2.21861   2.21943
 Alpha virt. eigenvalues --    2.22417   2.22569   2.23735   2.24129   2.24699
 Alpha virt. eigenvalues --    2.25098   2.25226   2.25672   2.26237   2.26335
 Alpha virt. eigenvalues --    2.27245   2.27424   2.27660   2.27861   2.28524
 Alpha virt. eigenvalues --    2.28893   2.29189   2.29983   2.30261   2.30905
 Alpha virt. eigenvalues --    2.31292   2.31388   2.31786   2.31971   2.32427
 Alpha virt. eigenvalues --    2.32680   2.33272   2.34983   2.35155   2.35512
 Alpha virt. eigenvalues --    2.35823   2.37043   2.37464   2.38454   2.39249
 Alpha virt. eigenvalues --    2.40175   2.40504   2.40743   2.40998   2.41420
 Alpha virt. eigenvalues --    2.41487   2.41755   2.42044   2.42162   2.42406
 Alpha virt. eigenvalues --    2.42549   2.43059   2.43385   2.43662   2.43915
 Alpha virt. eigenvalues --    2.44286   2.44522   2.45572   2.45806   2.46393
 Alpha virt. eigenvalues --    2.46892   2.47136   2.47589   2.47957   2.48302
 Alpha virt. eigenvalues --    2.48568   2.48802   2.49285   2.49815   2.50483
 Alpha virt. eigenvalues --    2.50866   2.51523   2.51736   2.52513   2.52762
 Alpha virt. eigenvalues --    2.53223   2.53939   2.54227   2.55628   2.55950
 Alpha virt. eigenvalues --    2.56235   2.56830   2.57443   2.57766   2.58318
 Alpha virt. eigenvalues --    2.58882   2.58975   2.59407   2.59637   2.59849
 Alpha virt. eigenvalues --    2.60248   2.60436   2.60876   2.61766   2.61885
 Alpha virt. eigenvalues --    2.62171   2.62599   2.62786   2.63755   2.64066
 Alpha virt. eigenvalues --    2.64346   2.65231   2.65451   2.65701   2.65912
 Alpha virt. eigenvalues --    2.66475   2.66844   2.67112   2.67400   2.67703
 Alpha virt. eigenvalues --    2.68067   2.68460   2.68930   2.69231   2.69574
 Alpha virt. eigenvalues --    2.69816   2.70014   2.70463   2.70968   2.71292
 Alpha virt. eigenvalues --    2.71714   2.72025   2.72267   2.72405   2.73191
 Alpha virt. eigenvalues --    2.73307   2.73906   2.74109   2.74715   2.74900
 Alpha virt. eigenvalues --    2.75805   2.76323   2.77440   2.77786   2.78522
 Alpha virt. eigenvalues --    2.79037   2.79550   2.80013   2.80446   2.80973
 Alpha virt. eigenvalues --    2.81119   2.81765   2.82035   2.82212   2.82461
 Alpha virt. eigenvalues --    2.82722   2.83094   2.83376   2.83971   2.84398
 Alpha virt. eigenvalues --    2.85028   2.85113   2.85659   2.86855   2.87123
 Alpha virt. eigenvalues --    2.87580   2.87837   2.87905   2.88571   2.88784
 Alpha virt. eigenvalues --    2.89144   2.89178   2.89733   2.90331   2.90543
 Alpha virt. eigenvalues --    2.90921   2.91342   2.92128   2.92465   2.92564
 Alpha virt. eigenvalues --    2.93057   2.93719   2.94383   2.94753   2.95281
 Alpha virt. eigenvalues --    2.98033   2.99305   3.00208   3.01320   3.02203
 Alpha virt. eigenvalues --    3.02625   3.03018   3.03080   3.04583   3.04965
 Alpha virt. eigenvalues --    3.07421   3.07827   3.08928   3.09368   3.09550
 Alpha virt. eigenvalues --    3.10440   3.10930   3.11953   3.13629   3.14900
 Alpha virt. eigenvalues --    3.17021   3.17419   3.18126   3.18428   3.18924
 Alpha virt. eigenvalues --    3.20146   3.21257   3.21698   3.22172   3.22462
 Alpha virt. eigenvalues --    3.22594   3.23730   3.24065   3.24876   3.25117
 Alpha virt. eigenvalues --    3.26202   3.27122   3.27497   3.27889   3.29805
 Alpha virt. eigenvalues --    3.29984   3.31071   3.31176   3.32197   3.32377
 Alpha virt. eigenvalues --    3.34141   3.34741   3.35276   3.37489   3.38216
 Alpha virt. eigenvalues --    3.40668   3.41717   3.42354   3.42709   3.43820
 Alpha virt. eigenvalues --    3.44758   3.44951   3.45054   3.45299   3.45970
 Alpha virt. eigenvalues --    3.46049   3.46280   3.46723   3.46892   3.47366
 Alpha virt. eigenvalues --    3.47792   3.48209   3.49363   3.50220   3.51425
 Alpha virt. eigenvalues --    3.51939   3.56599   3.59352   3.62963   3.68604
 Alpha virt. eigenvalues --    3.69061   3.69399   3.74394   3.74879   3.76808
 Alpha virt. eigenvalues --    3.80220   3.94512   4.03631   4.05796   4.11694
 Alpha virt. eigenvalues --    4.12568   4.16178   4.17486   4.17670   4.18148
 Alpha virt. eigenvalues --    4.18340   4.18953   4.20523   4.21662   4.23304
 Alpha virt. eigenvalues --    4.24295   4.25371   4.26319   4.26997   4.27851
 Alpha virt. eigenvalues --    4.28799   4.31733   4.35549   4.36151   4.39230
 Alpha virt. eigenvalues --    4.40572   4.41312   4.42519   4.43194   4.44588
 Alpha virt. eigenvalues --    4.45563   4.47132   4.48799   4.48897   4.50399
 Alpha virt. eigenvalues --    4.51202   4.52751   4.54332   4.55253   4.56974
 Alpha virt. eigenvalues --    4.58995   4.61829   4.62357   4.63193   4.63799
 Alpha virt. eigenvalues --    4.64970   4.69662   4.73241   4.75805   4.84190
 Alpha virt. eigenvalues --    4.84840   4.86398   4.88271   4.91338   4.97279
 Alpha virt. eigenvalues --    5.00566
          Condensed to atoms (all electrons):
 Mulliken charges:
               1
     1  O   -0.528288
     2  N   -0.569139
     3  O   -0.550357
     4  O   -0.567354
     5  C   -0.346505
     6  N    0.424939
     7  C    0.203865
     8  C    0.676927
     9  C    0.027487
    10  C   -0.128332
    11  C    0.630895
    12  C   -0.112213
    13  C   -0.115724
    14  C   -0.136534
    15  C   -0.124613
    16  O   -0.398706
    17  O   -0.396429
    18  H    0.455625
    19  H    0.426969
    20  H    0.435476
    21  H    0.141617
    22  H    0.155767
    23  H    0.154901
    24  H    0.180760
    25  H    0.188711
    26  H    0.174831
    27  H    0.192120
    28  O   -0.686720
    29  O   -0.627813
    30  C   -0.408145
    31  O   -0.648267
    32  C   -0.410961
    33  C   -0.388533
    34  O   -0.710564
    35  C   -0.403583
    36  C   -0.401544
    37  C   -0.392455
    38  C   -0.209555
    39  C    0.135483
    40  C   -0.150218
    41  C   -0.197285
    42  C    0.095306
    43  C    0.132490
    44  C   -0.061568
    45  C    0.225200
    46  C   -0.145815
    47  C    0.102862
    48  C   -0.211415
    49  C    0.128002
    50  C    0.027304
    51  C   -0.149484
    52  C   -0.003630
    53  C    0.227058
    54  C   -0.266941
    55  C   -0.004614
    56  C   -0.149470
    57  C   -0.054192
    58  C    0.029944
    59  C   -0.194597
    60  C   -0.149414
    61  C    0.099742
    62  C   -0.195690
    63  C    0.100209
    64  C    0.067880
    65  C   -0.210285
    66  C   -0.266226
    67  P    1.316211
    68  H    0.193064
    69  H    0.119683
    70  H    0.129782
    71  H    0.147257
    72  H    0.119421
    73  H    0.133322
    74  H    0.165356
    75  H    0.104676
    76  H    0.145749
    77  H    0.132142
    78  H    0.136167
    79  H    0.124822
    80  H    0.156077
    81  H    0.139564
    82  H    0.116241
    83  H    0.141833
    84  H    0.125236
    85  H    0.158528
    86  H    0.109959
    87  H    0.090099
    88  H    0.118653
    89  H    0.098509
    90  H    0.138285
    91  H    0.114463
    92  H    0.124700
    93  H    0.137450
    94  H    0.133066
    95  H    0.119085
    96  H    0.079278
    97  H    0.125803
    98  H    0.117469
    99  H    0.115366
   100  H    0.133516
   101  H    0.136227
   102  H    0.133754
 Sum of Mulliken charges =  -0.00000
 Mulliken charges with hydrogens summed into heavy atoms:
               1
     1  O   -0.072663
     2  N   -0.142170
     3  O   -0.550357
     4  O   -0.131878
     5  C    0.105780
     6  N    0.424939
     7  C    0.203865
     8  C    0.676927
     9  C    0.027487
    10  C    0.064731
    11  C    0.630895
    12  C    0.068548
    13  C    0.072987
    14  C    0.038297
    15  C    0.067508
    16  O   -0.398706
    17  O   -0.396429
    28  O   -0.686720
    29  O   -0.627813
    30  C   -0.011423
    31  O   -0.648267
    32  C    0.007138
    33  C   -0.005966
    34  O   -0.710564
    35  C    0.013483
    36  C   -0.003906
    37  C    0.001268
    38  C   -0.119456
    39  C    0.135483
    40  C   -0.031566
    41  C   -0.098776
    42  C    0.095306
    43  C    0.132490
    44  C   -0.061568
    45  C    0.225200
    46  C   -0.145815
    47  C    0.102862
    48  C    0.041333
    49  C    0.128002
    50  C    0.027304
    51  C   -0.024784
    52  C   -0.003630
    53  C    0.227058
    54  C    0.003574
    55  C   -0.004614
    56  C   -0.030385
    57  C   -0.054192
    58  C    0.029944
    59  C   -0.115319
    60  C   -0.023611
    61  C    0.099742
    62  C   -0.078221
    63  C    0.100209
    64  C    0.067880
    65  C    0.038597
    66  C    0.003755
    67  P    1.316211
 APT charges:
               1
     1  O   -0.071727
     2  N   -0.207700
     3  O    0.237406
     4  O   -0.014850
     5  C   -1.648923
     6  N   -0.598132
     7  C    0.572594
     8  C   -0.159305
     9  C   -0.472410
    10  C   -0.192528
    11  C    0.011710
    12  C   -0.604586
    13  C   -0.478466
    14  C   -0.428464
    15  C   -0.465299
    16  O    0.570404
    17  O   -0.206583
    18  H    0.066586
    19  H    0.137325
    20  H    0.491276
    21  H    0.657606
    22  H    0.706100
    23  H    0.285197
    24  H   -0.109324
    25  H    1.303259
    26  H    0.837076
    27  H    0.297390
    28  O   -0.432799
    29  O   -0.234517
    30  C   -1.626587
    31  O   -0.436327
    32  C   -1.201110
    33  C   -1.505410
    34  O   -0.632031
    35  C   -1.221653
    36  C   -1.081841
    37  C   -0.931256
    38  C   -0.515638
    39  C   -0.213514
    40  C   -0.453610
    41  C   -0.393896
    42  C    0.477979
    43  C   -0.209911
    44  C   -0.547776
    45  C   -0.304154
    46  C   -0.051596
    47  C   -0.131568
    48  C   -1.030508
    49  C   -0.387841
    50  C    0.234295
    51  C   -0.441099
    52  C   -0.499182
    53  C   -0.430203
    54  C   -1.604396
    55  C   -0.343507
    56  C   -0.458772
    57  C   -0.414630
    58  C    0.446585
    59  C   -0.440672
    60  C   -0.425882
    61  C   -0.272735
    62  C   -0.474454
    63  C   -0.058780
    64  C    0.263586
    65  C   -0.635611
    66  C   -1.573424
    67  P    0.579673
    68  H    0.134213
    69  H    0.259082
    70  H    0.377260
    71  H    1.083104
    72  H    0.894309
    73  H    0.527923
    74  H   -0.126285
    75  H    0.260762
    76  H    0.925713
    77  H    0.398771
    78  H    0.550729
    79  H    0.746277
    80  H    0.005090
    81  H   -0.021309
    82  H    0.579263
    83  H    0.591542
    84  H    0.734947
    85  H   -0.164603
    86  H    0.414447
    87  H    0.505875
    88  H    1.018821
    89  H    0.804608
    90  H    0.183638
    91  H    0.822221
    92  H    0.809489
    93  H    0.797943
    94  H    0.749658
    95  H    1.106668
    96  H    0.481099
    97  H    0.752486
    98  H    0.680576
    99  H    0.791683
   100  H   -0.045970
   101  H    0.562637
   102  H    0.906475
 Sum of APT charges =  -0.00000
 APT charges with hydrogens summed into heavy atoms:
               1
     1  O   -0.005142
     2  N   -0.070376
     3  O    0.237406
     4  O    0.476426
     5  C   -0.000020
     6  N   -0.598132
     7  C    0.572594
     8  C   -0.159305
     9  C   -0.472410
    10  C   -0.058315
    11  C    0.011710
    12  C   -0.713911
    13  C    0.824794
    14  C    0.408612
    15  C   -0.167909
    16  O    0.570404
    17  O   -0.206583
    28  O   -0.432799
    29  O   -0.234517
    30  C    0.092859
    31  O   -0.436327
    32  C    0.094836
    33  C    0.079836
    34  O   -0.632031
    35  C    0.080443
    36  C    0.067655
    37  C    0.053535
    38  C   -0.009763
    39  C   -0.213514
    40  C    0.565211
    41  C    0.410712
    42  C    0.477979
    43  C   -0.209911
    44  C   -0.547776
    45  C   -0.304154
    46  C   -0.051596
    47  C   -0.131568
    48  C   -0.024650
    49  C   -0.387841
    50  C    0.234295
    51  C    0.368390
    52  C   -0.499182
    53  C   -0.430203
    54  C   -0.056795
    55  C   -0.343507
    56  C    0.647896
    57  C   -0.414630
    58  C    0.446585
    59  C    0.040426
    60  C    0.326604
    61  C   -0.272735
    62  C    0.206123
    63  C   -0.058780
    64  C    0.263586
    65  C    0.110102
    66  C   -0.104312
    67  P    0.579673
 Electronic spatial extent (au):  <R**2>=          32442.7273
 Charge=             -0.0000 electrons
 Dipole moment (field-independent basis, Debye):
    X=             -1.0592    Y=              2.0269    Z=              0.1422  Tot=              2.2914
 Quadrupole moment (field-independent basis, Debye-Ang):
   XX=           -334.0505   YY=           -314.9872   ZZ=           -353.5092
   XY=             25.0527   XZ=             -9.2591   YZ=              9.3635
 Traceless Quadrupole moment (field-independent basis, Debye-Ang):
   XX=              0.1318   YY=             19.1951   ZZ=            -19.3269
   XY=             25.0527   XZ=             -9.2591   YZ=              9.3635
 Octapole moment (field-independent basis, Debye-Ang**2):
  XXX=             28.5210  YYY=             53.6227  ZZZ=            -33.3733  XYY=            -37.9904
  XXY=             25.7715  XXZ=            -56.3772  XZZ=           -111.7475  YZZ=             13.4366
  YYZ=            -46.5769  XYZ=             72.5430
 Hexadecapole moment (field-independent basis, Debye-Ang**3):
 XXXX=         -20377.5391 YYYY=         -13498.8832 ZZZZ=          -9870.6626 XXXY=            497.7814
 XXXZ=           -251.5367 YYYX=            168.6058 YYYZ=            -71.0952 ZZZX=           -352.4621
 ZZZY=            268.6491 XXYY=          -5690.7661 XXZZ=          -5413.4402 YYZZ=          -3937.3189
 XXYZ=            199.9586 YYXZ=             84.8122 ZZXY=            237.6208
 N-N= 9.280394608543D+03 E-N=-2.525237526046D+04  KE= 2.846349795849D+03
  Exact polarizability:       0.000       0.000       0.000       0.000       0.000       0.000
 Approx polarizability:     666.128      84.951     638.000      16.450     -58.929     644.203
 Leave Link  601 at Sun Nov  6 19:15:55 2022, MaxMem=  8053063680 cpu:               9.6 elap:               1.0
 (Enter /project/chenjingdan/g16/l9999.exe)

 This type of calculation cannot be archived.


 LIFE IS SO UNCERTAIN - EAT DESSERT FIRST.
 Job cpu time:       3 days  1 hours 47 minutes 52.8 seconds.
 Elapsed time:       0 days  4 hours 41 minutes 44.9 seconds.
 File lengths (MBytes):  RWF=    777 Int=      0 D2E=      0 Chk=    103 Scr=      1
 Normal termination of Gaussian 16 at Sun Nov  6 19:15:56 2022.
