 Entering Gaussian System, Link 0=g16
 Initial command:
 /project/chenjingdan/g16/l1.exe "/scratch/chenjingdan/scratch/Gau-92501.inp" -scrdir="/scratch/chenjingdan/scratch/"
 Entering Link 1 = /project/chenjingdan/g16/l1.exe PID=     92502.
  
 Copyright (c) 1988-2019, Gaussian, Inc.  All Rights Reserved.
  
 This is part of the Gaussian(R) 16 program.  It is based on
 the Gaussian(R) 09 system (copyright 2009, Gaussian, Inc.),
 the Gaussian(R) 03 system (copyright 2003, Gaussian, Inc.),
 the Gaussian(R) 98 system (copyright 1998, Gaussian, Inc.),
 the Gaussian(R) 94 system (copyright 1995, Gaussian, Inc.),
 the Gaussian 92(TM) system (copyright 1992, Gaussian, Inc.),
 the Gaussian 90(TM) system (copyright 1990, Gaussian, Inc.),
 the Gaussian 88(TM) system (copyright 1988, Gaussian, Inc.),
 the Gaussian 86(TM) system (copyright 1986, Carnegie Mellon
 University), and the Gaussian 82(TM) system (copyright 1983,
 Carnegie Mellon University). Gaussian is a federally registered
 trademark of Gaussian, Inc.
  
 This software contains proprietary and confidential information,
 including trade secrets, belonging to Gaussian, Inc.
  
 This software is provided under written license and may be
 used, copied, transmitted, or stored only in accord with that
 written license.
  
 The following legend is applicable only to US Government
 contracts under FAR:
  
                    RESTRICTED RIGHTS LEGEND
  
 Use, reproduction and disclosure by the US Government is
 subject to restrictions as set forth in subparagraphs (a)
 and (c) of the Commercial Computer Software - Restricted
 Rights clause in FAR 52.227-19.
  
 Gaussian, Inc.
 340 Quinnipiac St., Bldg. 40, Wallingford CT 06492
  
  
 ---------------------------------------------------------------
 Warning -- This program may not be used in any manner that
 competes with the business of Gaussian, Inc. or will provide
 assistance to any competitor of Gaussian, Inc.  The licensee
 of this program is prohibited from giving any competitor of
 Gaussian, Inc. access to this program.  By using this program,
 the user acknowledges that Gaussian, Inc. is engaged in the
 business of creating and licensing software in the field of
 computational chemistry and represents and warrants to the
 licensee that it is not a competitor of Gaussian, Inc. and that
 it will not use this program in any manner prohibited above.
 ---------------------------------------------------------------
  

 Cite this work as:
 Gaussian 16, Revision C.01,
 M. J. Frisch, G. W. Trucks, H. B. Schlegel, G. E. Scuseria, 
 M. A. Robb, J. R. Cheeseman, G. Scalmani, V. Barone, 
 G. A. Petersson, H. Nakatsuji, X. Li, M. Caricato, A. V. Marenich, 
 J. Bloino, B. G. Janesko, R. Gomperts, B. Mennucci, H. P. Hratchian, 
 J. V. Ortiz, A. F. Izmaylov, J. L. Sonnenberg, D. Williams-Young, 
 F. Ding, F. Lipparini, F. Egidi, J. Goings, B. Peng, A. Petrone, 
 T. Henderson, D. Ranasinghe, V. G. Zakrzewski, J. Gao, N. Rega, 
 G. Zheng, W. Liang, M. Hada, M. Ehara, K. Toyota, R. Fukuda, 
 J. Hasegawa, M. Ishida, T. Nakajima, Y. Honda, O. Kitao, H. Nakai, 
 T. Vreven, K. Throssell, J. A. Montgomery, Jr., J. E. Peralta, 
 F. Ogliaro, M. J. Bearpark, J. J. Heyd, E. N. Brothers, K. N. Kudin, 
 V. N. Staroverov, T. A. Keith, R. Kobayashi, J. Normand, 
 K. Raghavachari, A. P. Rendell, J. C. Burant, S. S. Iyengar, 
 J. Tomasi, M. Cossi, J. M. Millam, M. Klene, C. Adamo, R. Cammi, 
 J. W. Ochterski, R. L. Martin, K. Morokuma, O. Farkas, 
 J. B. Foresman, and D. J. Fox, Gaussian, Inc., Wallingford CT, 2019.
 
 ******************************************
 Gaussian 16:  ES64L-G16RevC.01  3-Jul-2019
                 6-Nov-2022 
 ******************************************
 %nprocshared=16
 Will use up to   16 processors via shared memory.
 %mem=60GB
 %chk=S_ts3_irc.chk
 ------------------------------------------------------------
 #p irc=(calcfc,maxpoints=40,maxstep=15,lqa) 6-31g(d,p) m062x
 ------------------------------------------------------------
 1/8=15,10=4,18=10,26=3,38=1,42=40,44=3,45=2,172=1/1,23;
 2/12=2,17=6,18=5,29=1,40=1/2;
 3/5=1,6=6,7=101,11=2,25=1,30=1,71=2,74=-55,140=1/1,2,3;
 4//1;
 5/5=2,38=5/2;
 8/6=4,10=90,11=11/1;
 11/6=1,8=1,9=11,15=111,16=1/1,2,10;
 10/6=1,13=1/2;
 6/7=2,8=2,9=2,10=2,28=1/1;
 7/10=1,25=1/1,2,3,16;
 1/8=15,10=4,18=10,26=3,42=40,44=3,45=2/23(2);
 2/29=1/2;
 99/5=20/99;
 2/29=1/2;
 3/5=1,6=6,7=101,11=2,25=1,30=1,71=2,74=-55,140=1/1,2,3;
 4/5=5,16=3,69=1/1;
 5/5=2,38=5/2;
 8/6=4,10=90,11=11/1;
 11/6=1,8=1,9=11,15=111,16=1/1,2,10;
 10/6=1,13=1/2;
 7/10=1,25=1/1,2,3,16;
 1/8=15,18=10,26=3,42=40,44=3,45=2/23(-8);
 2/29=1/2;
 6/7=2,8=2,9=2,10=2,19=2,28=1/1;
 99/5=20,9=1/99;
 Leave Link    1 at Sun Nov  6 04:15:28 2022, MaxMem=  8053063680 cpu:               1.3 elap:               0.1
 (Enter /project/chenjingdan/g16/l101.exe)
 -----
 TITLE
 -----
 Symbolic Z-matrix:
 Charge =  0 Multiplicity = 1
 O                     0.87151   1.69561  -3.31775 
 N                     1.79385   2.12889  -0.20023 
 O                     2.87647   2.56796  -2.93997 
 O                     3.96014   2.43847  -0.81564 
 C                     1.52959   4.42014  -1.13813 
 N                     5.01247  -1.50104   4.08244 
 C                     4.49727  -0.59843   3.03418 
 C                     1.67887   2.35948  -2.61189 
 C                     3.54231   1.06343   1.07666 
 C                     1.20544   2.93441  -1.2728 
 C                     3.08148   1.9249   -0.04218 
 C                     2.66475   0.18306   1.7202 
 C                     5.38666   0.2642    2.4092 
 C                     4.89685   1.10004   1.41428 
 C                     3.14775  -0.6583    2.71324 
 O                     6.19287  -1.41558   4.3619 
 O                     4.22248  -2.26969   4.59527 
 H                     0.07538   1.16967  -2.67216 
 H                     1.05261   1.66015   0.37008 
 H                     3.52236   2.6479   -1.87356 
 H                     2.60478   4.6026   -1.16822 
 H                     1.06016   4.97369  -1.95454 
 H                     1.12761   4.78825  -0.19234 
 H                     1.61742   0.11174   1.4341 
 H                     6.4291    0.26396   2.70079 
 H                     5.55556   1.77867   0.88433 
 H                     2.50442  -1.36393   3.22351 
 O                    -0.67029   0.47207  -1.96356 
 O                    -2.6042    0.08208  -0.51099 
 C                    -2.70842   6.34935  -0.16052 
 O                    -0.50286  -1.27502  -0.05562 
 C                    -5.0617    1.9434   -0.76195 
 C                     5.20197  -0.0061   -2.282 
 O                    -0.46719   1.11709   0.56021 
 C                     0.74329  -1.19925  -4.27134 
 C                     2.06453  -2.97979   0.30497 
 C                    -1.71461   2.57254   3.01085 
 C                    -2.2665    4.39887   1.38127 
 C                    -3.3838   -1.52009   1.08353 
 C                    -4.30051  -0.77747   3.19865 
 C                    -3.8363    4.10413  -0.39799 
 C                    -2.93313   4.92365   0.27528 
 C                    -2.05813  -2.96409  -0.73778 
 C                    -3.38627   2.27878   1.11661 
 C                    -3.20921  -0.19675   0.70816 
 C                    -3.13714  -2.81044   0.3206 
 C                    -4.07538   2.78967   0.00328 
 C                    -4.3844   -3.25774  -0.49341 
 C                    -2.47981   3.09219   1.81934 
 C                    -3.89292  -1.80207   2.35513 
 C                    -4.16809   0.54367   2.7748 
 C                     0.09481  -2.74836  -1.8542 
 C                    -0.82657  -2.34342  -0.88035 
 C                    -3.85965  -4.37538  -1.41555 
 C                    -3.59918   0.86303   1.53798 
 C                    -1.54238  -4.37179  -2.63991 
 C                     1.41332  -2.05952  -1.97135 
 C                    -2.42994  -3.94731  -1.65998 
 C                     3.562    -1.47297  -1.03588 
 C                    -0.27904  -3.7868   -2.71238 
 C                     2.34788  -2.15066  -0.92302 
 C                     2.92994  -0.62576  -3.18254 
 C                     1.71118  -1.30346  -3.1183 
 C                     3.86967  -0.69885  -2.15558 
 C                    -2.91022  -3.79053   1.50826 
 C                    -3.86558  -3.2921    2.60823 
 P                    -0.99183   0.20725  -0.50657 
 H                     0.1291    2.7836   -1.17978 
 H                    -1.70506   6.69236   0.10556 
 H                    -2.83302   6.45834  -1.24086 
 H                    -3.42364   7.02375   0.32199 
 H                    -5.67886   2.56634  -1.41299 
 H                    -5.72064   1.39302  -0.08458 
 H                    -4.54112   1.20864  -1.38401 
 H                     5.60348   0.26389  -1.30132 
 H                     5.93093  -0.65922  -2.77319 
 H                     5.11304   0.90495  -2.87923 
 H                     1.01303  -0.35936  -4.91366 
 H                     0.75289  -2.10988  -4.87913 
 H                    -0.27851  -1.04962  -3.9141 
 H                     1.29681  -2.50968   0.92977 
 H                     2.96929  -3.10047   0.90615 
 H                     1.69547  -3.97321   0.03392 
 H                    -2.35113   2.49455   3.89792 
 H                    -1.30439   1.58309   2.79919 
 H                    -0.88988   3.24689   3.25445 
 H                    -1.55657   5.02386   1.92008 
 H                    -4.70391  -0.99846   4.18234 
 H                    -4.37152   4.49613  -1.26038 
 H                    -4.72711  -2.41051  -1.09674 
 H                    -5.20909  -3.57284   0.15216 
 H                    -4.48732   1.35651   3.42046 
 H                    -4.43133  -4.46252  -2.3434 
 H                    -3.89864  -5.35282  -0.91937 
 H                    -1.82947  -5.14185  -3.34966 
 H                     4.28748  -1.55273  -0.22666 
 H                     0.43042  -4.11538  -3.46602 
 H                     3.14063  -0.00726  -4.05191 
 H                    -3.07471  -4.83305   1.22195 
 H                    -1.87345  -3.69007   1.84699 
 H                    -3.51922  -3.53824   3.61555 
 H                    -4.86562  -3.72826   2.49459 
 
 ITRead=  0  0  0  0  0  0  0  0  0  0  0  0  0  0  0  0  0  0  0  0
 ITRead=  0  0  0  0  0  0  0  0  0  0  0  0  0  0  0  0  0  0  0  0
 ITRead=  0  0  0  0  0  0  0  0  0  0  0  0  0  0  0  0  0  0  0  0
 ITRead=  0  0  0  0  0  0  0  0  0  0  0  0  0  0  0  0  0  0  0  0
 ITRead=  0  0  0  0  0  0  0  0  0  0  0  0  0  0  0  0  0  0  0  0
 ITRead=  0  0
 MicOpt= -1 -1 -1 -1 -1 -1 -1 -1 -1 -1 -1 -1 -1 -1 -1 -1 -1 -1 -1 -1
 MicOpt= -1 -1 -1 -1 -1 -1 -1 -1 -1 -1 -1 -1 -1 -1 -1 -1 -1 -1 -1 -1
 MicOpt= -1 -1 -1 -1 -1 -1 -1 -1 -1 -1 -1 -1 -1 -1 -1 -1 -1 -1 -1 -1
 MicOpt= -1 -1 -1 -1 -1 -1 -1 -1 -1 -1 -1 -1 -1 -1 -1 -1 -1 -1 -1 -1
 MicOpt= -1 -1 -1 -1 -1 -1 -1 -1 -1 -1 -1 -1 -1 -1 -1 -1 -1 -1 -1 -1
 MicOpt= -1 -1
 NAtoms=    102 NQM=      102 NQMF=       0 NMMI=      0 NMMIF=      0
                NMic=       0 NMicF=      0.
                    Isotopes and Nuclear Properties:
 (Nuclear quadrupole moments (NQMom) in fm**2, nuclear magnetic moments (NMagM)
  in nuclear magnetons)

  Atom         1           2           3           4           5           6           7           8           9          10
 IAtWgt=          16          14          16          16          12          14          12          12          12          12
 AtmWgt=  15.9949146  14.0030740  15.9949146  15.9949146  12.0000000  14.0030740  12.0000000  12.0000000  12.0000000  12.0000000
 NucSpn=           0           2           0           0           0           2           0           0           0           0
 AtZEff=  -0.0000000  -0.0000000  -0.0000000  -0.0000000  -0.0000000  -0.0000000  -0.0000000  -0.0000000  -0.0000000  -0.0000000
 NQMom=    0.0000000   2.0440000   0.0000000   0.0000000   0.0000000   2.0440000   0.0000000   0.0000000   0.0000000   0.0000000
 NMagM=    0.0000000   0.4037610   0.0000000   0.0000000   0.0000000   0.4037610   0.0000000   0.0000000   0.0000000   0.0000000
 AtZNuc=   8.0000000   7.0000000   8.0000000   8.0000000   6.0000000   7.0000000   6.0000000   6.0000000   6.0000000   6.0000000

  Atom        11          12          13          14          15          16          17          18          19          20
 IAtWgt=          12          12          12          12          12          16          16           1           1           1
 AtmWgt=  12.0000000  12.0000000  12.0000000  12.0000000  12.0000000  15.9949146  15.9949146   1.0078250   1.0078250   1.0078250
 NucSpn=           0           0           0           0           0           0           0           1           1           1
 AtZEff=  -0.0000000  -0.0000000  -0.0000000  -0.0000000  -0.0000000  -0.0000000  -0.0000000  -0.0000000  -0.0000000  -0.0000000
 NQMom=    0.0000000   0.0000000   0.0000000   0.0000000   0.0000000   0.0000000   0.0000000   0.0000000   0.0000000   0.0000000
 NMagM=    0.0000000   0.0000000   0.0000000   0.0000000   0.0000000   0.0000000   0.0000000   2.7928460   2.7928460   2.7928460
 AtZNuc=   6.0000000   6.0000000   6.0000000   6.0000000   6.0000000   8.0000000   8.0000000   1.0000000   1.0000000   1.0000000

  Atom        21          22          23          24          25          26          27          28          29          30
 IAtWgt=           1           1           1           1           1           1           1          16          16          12
 AtmWgt=   1.0078250   1.0078250   1.0078250   1.0078250   1.0078250   1.0078250   1.0078250  15.9949146  15.9949146  12.0000000
 NucSpn=           1           1           1           1           1           1           1           0           0           0
 AtZEff=  -0.0000000  -0.0000000  -0.0000000  -0.0000000  -0.0000000  -0.0000000  -0.0000000  -0.0000000  -0.0000000  -0.0000000
 NQMom=    0.0000000   0.0000000   0.0000000   0.0000000   0.0000000   0.0000000   0.0000000   0.0000000   0.0000000   0.0000000
 NMagM=    2.7928460   2.7928460   2.7928460   2.7928460   2.7928460   2.7928460   2.7928460   0.0000000   0.0000000   0.0000000
 AtZNuc=   1.0000000   1.0000000   1.0000000   1.0000000   1.0000000   1.0000000   1.0000000   8.0000000   8.0000000   6.0000000

  Atom        31          32          33          34          35          36          37          38          39          40
 IAtWgt=          16          12          12          16          12          12          12          12          12          12
 AtmWgt=  15.9949146  12.0000000  12.0000000  15.9949146  12.0000000  12.0000000  12.0000000  12.0000000  12.0000000  12.0000000
 NucSpn=           0           0           0           0           0           0           0           0           0           0
 AtZEff=  -0.0000000  -0.0000000  -0.0000000  -0.0000000  -0.0000000  -0.0000000  -0.0000000  -0.0000000  -0.0000000  -0.0000000
 NQMom=    0.0000000   0.0000000   0.0000000   0.0000000   0.0000000   0.0000000   0.0000000   0.0000000   0.0000000   0.0000000
 NMagM=    0.0000000   0.0000000   0.0000000   0.0000000   0.0000000   0.0000000   0.0000000   0.0000000   0.0000000   0.0000000
 AtZNuc=   8.0000000   6.0000000   6.0000000   8.0000000   6.0000000   6.0000000   6.0000000   6.0000000   6.0000000   6.0000000

  Atom        41          42          43          44          45          46          47          48          49          50
 IAtWgt=          12          12          12          12          12          12          12          12          12          12
 AtmWgt=  12.0000000  12.0000000  12.0000000  12.0000000  12.0000000  12.0000000  12.0000000  12.0000000  12.0000000  12.0000000
 NucSpn=           0           0           0           0           0           0           0           0           0           0
 AtZEff=  -0.0000000  -0.0000000  -0.0000000  -0.0000000  -0.0000000  -0.0000000  -0.0000000  -0.0000000  -0.0000000  -0.0000000
 NQMom=    0.0000000   0.0000000   0.0000000   0.0000000   0.0000000   0.0000000   0.0000000   0.0000000   0.0000000   0.0000000
 NMagM=    0.0000000   0.0000000   0.0000000   0.0000000   0.0000000   0.0000000   0.0000000   0.0000000   0.0000000   0.0000000
 AtZNuc=   6.0000000   6.0000000   6.0000000   6.0000000   6.0000000   6.0000000   6.0000000   6.0000000   6.0000000   6.0000000

  Atom        51          52          53          54          55          56          57          58          59          60
 IAtWgt=          12          12          12          12          12          12          12          12          12          12
 AtmWgt=  12.0000000  12.0000000  12.0000000  12.0000000  12.0000000  12.0000000  12.0000000  12.0000000  12.0000000  12.0000000
 NucSpn=           0           0           0           0           0           0           0           0           0           0
 AtZEff=  -0.0000000  -0.0000000  -0.0000000  -0.0000000  -0.0000000  -0.0000000  -0.0000000  -0.0000000  -0.0000000  -0.0000000
 NQMom=    0.0000000   0.0000000   0.0000000   0.0000000   0.0000000   0.0000000   0.0000000   0.0000000   0.0000000   0.0000000
 NMagM=    0.0000000   0.0000000   0.0000000   0.0000000   0.0000000   0.0000000   0.0000000   0.0000000   0.0000000   0.0000000
 AtZNuc=   6.0000000   6.0000000   6.0000000   6.0000000   6.0000000   6.0000000   6.0000000   6.0000000   6.0000000   6.0000000

  Atom        61          62          63          64          65          66          67          68          69          70
 IAtWgt=          12          12          12          12          12          12          31           1           1           1
 AtmWgt=  12.0000000  12.0000000  12.0000000  12.0000000  12.0000000  12.0000000  30.9737634   1.0078250   1.0078250   1.0078250
 NucSpn=           0           0           0           0           0           0           1           1           1           1
 AtZEff=  -0.0000000  -0.0000000  -0.0000000  -0.0000000  -0.0000000  -0.0000000  -0.0000000  -0.0000000  -0.0000000  -0.0000000
 NQMom=    0.0000000   0.0000000   0.0000000   0.0000000   0.0000000   0.0000000   0.0000000   0.0000000   0.0000000   0.0000000
 NMagM=    0.0000000   0.0000000   0.0000000   0.0000000   0.0000000   0.0000000   1.1316000   2.7928460   2.7928460   2.7928460
 AtZNuc=   6.0000000   6.0000000   6.0000000   6.0000000   6.0000000   6.0000000  15.0000000   1.0000000   1.0000000   1.0000000

  Atom        71          72          73          74          75          76          77          78          79          80
 IAtWgt=           1           1           1           1           1           1           1           1           1           1
 AtmWgt=   1.0078250   1.0078250   1.0078250   1.0078250   1.0078250   1.0078250   1.0078250   1.0078250   1.0078250   1.0078250
 NucSpn=           1           1           1           1           1           1           1           1           1           1
 AtZEff=  -0.0000000  -0.0000000  -0.0000000  -0.0000000  -0.0000000  -0.0000000  -0.0000000  -0.0000000  -0.0000000  -0.0000000
 NQMom=    0.0000000   0.0000000   0.0000000   0.0000000   0.0000000   0.0000000   0.0000000   0.0000000   0.0000000   0.0000000
 NMagM=    2.7928460   2.7928460   2.7928460   2.7928460   2.7928460   2.7928460   2.7928460   2.7928460   2.7928460   2.7928460
 AtZNuc=   1.0000000   1.0000000   1.0000000   1.0000000   1.0000000   1.0000000   1.0000000   1.0000000   1.0000000   1.0000000

  Atom        81          82          83          84          85          86          87          88          89          90
 IAtWgt=           1           1           1           1           1           1           1           1           1           1
 AtmWgt=   1.0078250   1.0078250   1.0078250   1.0078250   1.0078250   1.0078250   1.0078250   1.0078250   1.0078250   1.0078250
 NucSpn=           1           1           1           1           1           1           1           1           1           1
 AtZEff=  -0.0000000  -0.0000000  -0.0000000  -0.0000000  -0.0000000  -0.0000000  -0.0000000  -0.0000000  -0.0000000  -0.0000000
 NQMom=    0.0000000   0.0000000   0.0000000   0.0000000   0.0000000   0.0000000   0.0000000   0.0000000   0.0000000   0.0000000
 NMagM=    2.7928460   2.7928460   2.7928460   2.7928460   2.7928460   2.7928460   2.7928460   2.7928460   2.7928460   2.7928460
 AtZNuc=   1.0000000   1.0000000   1.0000000   1.0000000   1.0000000   1.0000000   1.0000000   1.0000000   1.0000000   1.0000000

  Atom        91          92          93          94          95          96          97          98          99         100
 IAtWgt=           1           1           1           1           1           1           1           1           1           1
 AtmWgt=   1.0078250   1.0078250   1.0078250   1.0078250   1.0078250   1.0078250   1.0078250   1.0078250   1.0078250   1.0078250
 NucSpn=           1           1           1           1           1           1           1           1           1           1
 AtZEff=  -0.0000000  -0.0000000  -0.0000000  -0.0000000  -0.0000000  -0.0000000  -0.0000000  -0.0000000  -0.0000000  -0.0000000
 NQMom=    0.0000000   0.0000000   0.0000000   0.0000000   0.0000000   0.0000000   0.0000000   0.0000000   0.0000000   0.0000000
 NMagM=    2.7928460   2.7928460   2.7928460   2.7928460   2.7928460   2.7928460   2.7928460   2.7928460   2.7928460   2.7928460
 AtZNuc=   1.0000000   1.0000000   1.0000000   1.0000000   1.0000000   1.0000000   1.0000000   1.0000000   1.0000000   1.0000000

  Atom       101         102
 IAtWgt=           1           1
 AtmWgt=   1.0078250   1.0078250
 NucSpn=           1           1
 AtZEff=  -0.0000000  -0.0000000
 NQMom=    0.0000000   0.0000000
 NMagM=    2.7928460   2.7928460
 AtZNuc=   1.0000000   1.0000000
 Leave Link  101 at Sun Nov  6 04:15:28 2022, MaxMem=  8053063680 cpu:               2.0 elap:               0.1
 (Enter /project/chenjingdan/g16/l123.exe)
 IRC-IRC-IRC-IRC-IRC-IRC-IRC-IRC-IRC-IRC-IRC-IRC-IRC-IRC-IRC-IRC-IRC-IRC
 ------------------------------------------------------------------------
 INPUT DATA FOR L123
 ------------------------------------------------------------------------
 GENERAL PARAMETERS:
 Follow reaction path in both directions.
 Maximum points per path      =  40
 Step size                    =   0.100 bohr
 Integration scheme           = LQA                                 
 Initial Hessian              = CalcFC
 Hessian evaluation           = All updating
 Hessian updating method      = Bofill                              
 ------------------------------------------------------------------------
 IRC-IRC-IRC-IRC-IRC-IRC-IRC-IRC-IRC-IRC-IRC-IRC-IRC-IRC-IRC-IRC-IRC-IRC
 Leave Link  123 at Sun Nov  6 04:15:29 2022, MaxMem=  8053063680 cpu:               0.1 elap:               0.0
 (Enter /project/chenjingdan/g16/l202.exe)
 Symmetry turned off by external request.
 Stoichiometry    C45H45N2O9P
 Framework group  C1[X(C45H45N2O9P)]
 Deg. of freedom   300
 Full point group                 C1      NOp   1
                          Input orientation:                          
 ---------------------------------------------------------------------
 Center     Atomic      Atomic             Coordinates (Angstroms)
 Number     Number       Type             X           Y           Z
 ---------------------------------------------------------------------
      1          8           0        0.871513    1.695614   -3.317748
      2          7           0        1.793848    2.128895   -0.200231
      3          8           0        2.876465    2.567961   -2.939969
      4          8           0        3.960138    2.438474   -0.815636
      5          6           0        1.529593    4.420139   -1.138130
      6          7           0        5.012473   -1.501042    4.082438
      7          6           0        4.497269   -0.598427    3.034182
      8          6           0        1.678869    2.359477   -2.611894
      9          6           0        3.542314    1.063431    1.076661
     10          6           0        1.205441    2.934412   -1.272796
     11          6           0        3.081483    1.924904   -0.042178
     12          6           0        2.664745    0.183063    1.720195
     13          6           0        5.386660    0.264204    2.409201
     14          6           0        4.896846    1.100041    1.414278
     15          6           0        3.147746   -0.658303    2.713239
     16          8           0        6.192871   -1.415576    4.361896
     17          8           0        4.222478   -2.269694    4.595267
     18          1           0        0.075378    1.169667   -2.672164
     19          1           0        1.052614    1.660146    0.370076
     20          1           0        3.522362    2.647900   -1.873555
     21          1           0        2.604775    4.602603   -1.168219
     22          1           0        1.060158    4.973693   -1.954540
     23          1           0        1.127611    4.788248   -0.192341
     24          1           0        1.617424    0.111738    1.434098
     25          1           0        6.429097    0.263957    2.700789
     26          1           0        5.555559    1.778670    0.884329
     27          1           0        2.504419   -1.363934    3.223514
     28          8           0       -0.670294    0.472070   -1.963555
     29          8           0       -2.604204    0.082079   -0.510988
     30          6           0       -2.708417    6.349354   -0.160521
     31          8           0       -0.502862   -1.275023   -0.055623
     32          6           0       -5.061698    1.943395   -0.761951
     33          6           0        5.201968   -0.006098   -2.282000
     34          8           0       -0.467187    1.117091    0.560208
     35          6           0        0.743289   -1.199249   -4.271338
     36          6           0        2.064532   -2.979793    0.304972
     37          6           0       -1.714613    2.572535    3.010854
     38          6           0       -2.266505    4.398873    1.381270
     39          6           0       -3.383802   -1.520094    1.083529
     40          6           0       -4.300513   -0.777470    3.198650
     41          6           0       -3.836295    4.104127   -0.397990
     42          6           0       -2.933131    4.923645    0.275275
     43          6           0       -2.058126   -2.964089   -0.737776
     44          6           0       -3.386267    2.278777    1.116607
     45          6           0       -3.209210   -0.196746    0.708155
     46          6           0       -3.137135   -2.810437    0.320604
     47          6           0       -4.075375    2.789668    0.003281
     48          6           0       -4.384400   -3.257741   -0.493411
     49          6           0       -2.479807    3.092191    1.819343
     50          6           0       -3.892917   -1.802068    2.355129
     51          6           0       -4.168085    0.543672    2.774803
     52          6           0        0.094805   -2.748357   -1.854202
     53          6           0       -0.826571   -2.343424   -0.880348
     54          6           0       -3.859652   -4.375376   -1.415547
     55          6           0       -3.599179    0.863027    1.537975
     56          6           0       -1.542378   -4.371790   -2.639905
     57          6           0        1.413321   -2.059517   -1.971348
     58          6           0       -2.429939   -3.947314   -1.659976
     59          6           0        3.561997   -1.472968   -1.035877
     60          6           0       -0.279036   -3.786804   -2.712384
     61          6           0        2.347876   -2.150659   -0.923022
     62          6           0        2.929938   -0.625755   -3.182542
     63          6           0        1.711183   -1.303455   -3.118302
     64          6           0        3.869669   -0.698847   -2.155576
     65          6           0       -2.910218   -3.790531    1.508263
     66          6           0       -3.865582   -3.292095    2.608232
     67         15           0       -0.991834    0.207248   -0.506565
     68          1           0        0.129095    2.783603   -1.179783
     69          1           0       -1.705062    6.692363    0.105564
     70          1           0       -2.833020    6.458343   -1.240863
     71          1           0       -3.423640    7.023748    0.321994
     72          1           0       -5.678859    2.566341   -1.412994
     73          1           0       -5.720640    1.393016   -0.084578
     74          1           0       -4.541115    1.208643   -1.384011
     75          1           0        5.603484    0.263889   -1.301316
     76          1           0        5.930926   -0.659215   -2.773186
     77          1           0        5.113044    0.904950   -2.879225
     78          1           0        1.013035   -0.359357   -4.913656
     79          1           0        0.752889   -2.109876   -4.879131
     80          1           0       -0.278506   -1.049624   -3.914095
     81          1           0        1.296805   -2.509681    0.929770
     82          1           0        2.969292   -3.100469    0.906145
     83          1           0        1.695466   -3.973205    0.033924
     84          1           0       -2.351127    2.494551    3.897922
     85          1           0       -1.304394    1.583091    2.799193
     86          1           0       -0.889877    3.246890    3.254452
     87          1           0       -1.556568    5.023860    1.920084
     88          1           0       -4.703910   -0.998463    4.182341
     89          1           0       -4.371519    4.496131   -1.260381
     90          1           0       -4.727114   -2.410512   -1.096737
     91          1           0       -5.209093   -3.572842    0.152155
     92          1           0       -4.487317    1.356512    3.420456
     93          1           0       -4.431325   -4.462521   -2.343395
     94          1           0       -3.898639   -5.352816   -0.919367
     95          1           0       -1.829467   -5.141847   -3.349658
     96          1           0        4.287479   -1.552732   -0.226662
     97          1           0        0.430417   -4.115380   -3.466016
     98          1           0        3.140634   -0.007261   -4.051909
     99          1           0       -3.074714   -4.833051    1.221947
    100          1           0       -1.873453   -3.690072    1.846985
    101          1           0       -3.519224   -3.538239    3.615553
    102          1           0       -4.865623   -3.728262    2.494586
 ---------------------------------------------------------------------
 Rotational constants (GHZ):           0.0582242           0.0438218           0.0387009
 Leave Link  202 at Sun Nov  6 04:15:29 2022, MaxMem=  8053063680 cpu:               0.2 elap:               0.0
 (Enter /project/chenjingdan/g16/l301.exe)
 Standard basis: 6-31G(d,p) (6D, 7F)
 Ernie: Thresh=  0.10000D-02 Tol=  0.10000D-05 Strict=F.
  1084 basis functions,  1935 primitive gaussians,  1084 cartesian basis functions
   208 alpha electrons      208 beta electrons
       nuclear repulsion energy      9253.7020531559 Hartrees.
 IExCor= 4336 DFT=T Ex+Corr=M062X ExCW=0 ScaHFX=  0.540000
 ScaDFX=  1.000000  1.000000  1.000000  1.000000 ScalE2=  1.000000  1.000000
 IRadAn=      5 IRanWt=     -1 IRanGd=            0 ICorTp=0 IEmpDi=  4
 NAtoms=  102 NActive=  102 NUniq=  102 SFac= 1.00D+00 NAtFMM=   60 NAOKFM=T Big=T
 Integral buffers will be    131072 words long.
 Raffenetti 2 integral format.
 Two-electron integral symmetry is turned off.
 Leave Link  301 at Sun Nov  6 04:15:29 2022, MaxMem=  8053063680 cpu:               1.0 elap:               0.1
 (Enter /project/chenjingdan/g16/l302.exe)
 NPDir=0 NMtPBC=     1 NCelOv=     1 NCel=       1 NClECP=     1 NCelD=      1
         NCelK=      1 NCelE2=     1 NClLst=     1 CellRange=     0.0.
 One-electron integrals computed using PRISM.
 NBasis=  1084 RedAO= T EigKep=  2.34D-04  NBF=  1084
 NBsUse=  1084 1.00D-06 EigRej= -1.00D+00 NBFU=  1084
 Precomputing XC quadrature grid using
 IXCGrd= 4 IRadAn=           5 IRanWt=          -1 IRanGd=           0 AccXCQ= 0.00D+00.
 Generated NRdTot=       0 NPtTot=           0 NUsed=           0 NTot=          32
 NSgBfM=  1032  1032  1032  1032  1032 MxSgAt=   102 MxSgA2=   102.
 Leave Link  302 at Sun Nov  6 04:15:31 2022, MaxMem=  8053063680 cpu:              36.4 elap:               2.3
 (Enter /project/chenjingdan/g16/l303.exe)
 DipDrv:  MaxL=1.
 Leave Link  303 at Sun Nov  6 04:15:31 2022, MaxMem=  8053063680 cpu:               2.0 elap:               0.2
 (Enter /project/chenjingdan/g16/l401.exe)
 ExpMin= 9.98D-02 ExpMax= 1.94D+04 ExpMxC= 2.91D+03 IAcc=3 IRadAn=         5 AccDes= 0.00D+00
 Harris functional with IExCor= 1009 and IRadAn=       5 diagonalized for initial guess.
 HarFok:  IExCor= 1009 AccDes= 0.00D+00 IRadAn=         5 IDoV= 1 UseB2=F ITyADJ=14
 ICtDFT=  3500011 ScaDFX=  1.000000  1.000000  1.000000  1.000000
 FoFCou: FMM=F IPFlag=           0 FMFlag=      100000 FMFlg1=        2001
         NFxFlg=           0 DoJE=T BraDBF=F KetDBF=T FulRan=T
         wScrn=  0.000000 ICntrl=       500 IOpCl=  0 I1Cent=   200000004 NGrid=           0
         NMat0=    1 NMatS0=      1 NMatT0=    0 NMatD0=    1 NMtDS0=    0 NMtDT0=    0
 Symmetry not used in FoFCou.
 Harris En= -2867.61993110046    
 JPrj=0 DoOrth=F DoCkMO=F.
 Leave Link  401 at Sun Nov  6 04:15:38 2022, MaxMem=  8053063680 cpu:              96.6 elap:               6.1
 (Enter /project/chenjingdan/g16/l502.exe)
 Two-electron integral symmetry not used.
 Closed shell SCF:
 Using DIIS extrapolation, IDIIS=  1040.
 NGot=  8053063680 LenX=  8050685130 LenY=  8049508990
 Requested convergence on RMS density matrix=1.00D-08 within 128 cycles.
 Requested convergence on MAX density matrix=1.00D-06.
 Requested convergence on             energy=1.00D-06.
 No special actions if energy rises.
 Fock matrices will be formed incrementally for  20 cycles.
 Integral accuracy reduced to 1.0D-05 until final iterations.

 Cycle   1  Pass 0  IDiag  1:
 FoFJK:  IHMeth= 1 ICntrl=       0 DoSepK=F KAlg= 0 I1Cent=           0 FoldK=F
 IRaf= 770000000 NMat=       1 IRICut=       1 DoRegI=T DoRafI=F ISym2E= 0 IDoP0=0 IntGTp=1.
 FoFCou: FMM=T IPFlag=           0 FMFlag=      100000 FMFlg1=        2001
         NFxFlg=           0 DoJE=F BraDBF=F KetDBF=F FulRan=T
         wScrn=  0.000000 ICntrl=         0 IOpCl=  0 I1Cent=           0 NGrid=           0
         NMat0=    1 NMatS0=      1 NMatT0=    0 NMatD0=    1 NMtDS0=    0 NMtDT0=    0
 Symmetry not used in FoFCou.
 FMM levels:  10  Number of levels for PrismC:   9
 E= -2867.42805641619    
 DIIS: error= 1.93D-02 at cycle   1 NSaved=   1.
 NSaved= 1 IEnMin= 1 EnMin= -2867.42805641619     IErMin= 1 ErrMin= 1.93D-02
 ErrMax= 1.93D-02  0.00D+00 EMaxC= 1.00D-01 BMatC= 1.74D+00 BMatP= 1.74D+00
 IDIUse=3 WtCom= 8.07D-01 WtEn= 1.93D-01
 Coeff-Com:  0.100D+01
 Coeff-En:   0.100D+01
 Coeff:      0.100D+01
 Gap=     0.131 Goal=   None    Shift=    0.000
 GapD=    0.131 DampG=1.000 DampE=0.500 DampFc=0.5000 IDamp=-1.
 Damping current iteration by 5.00D-01
 RMSDP=2.14D-03 MaxDP=2.29D-01              OVMax= 2.57D-01

 Cycle   2  Pass 0  IDiag  1:
 RMSU=  1.05D-03    CP:  9.81D-01
 E= -2868.14760753949     Delta-E=       -0.719551123300 Rises=F Damp=T
 DIIS: error= 8.46D-03 at cycle   2 NSaved=   2.
 NSaved= 2 IEnMin= 2 EnMin= -2868.14760753949     IErMin= 2 ErrMin= 8.46D-03
 ErrMax= 8.46D-03  0.00D+00 EMaxC= 1.00D-01 BMatC= 1.43D-01 BMatP= 1.74D+00
 IDIUse=3 WtCom= 9.15D-01 WtEn= 8.46D-02
 Coeff-Com: -0.474D-01 0.105D+01
 Coeff-En:   0.000D+00 0.100D+01
 Coeff:     -0.434D-01 0.104D+01
 Gap=     0.215 Goal=   None    Shift=    0.000
 RMSDP=6.50D-04 MaxDP=9.13D-02 DE=-7.20D-01 OVMax= 2.00D-01

 Cycle   3  Pass 0  IDiag  1:
 RMSU=  6.28D-04    CP:  9.68D-01  1.10D+00
 E= -2868.82606507506     Delta-E=       -0.678457535570 Rises=F Damp=F
 DIIS: error= 7.29D-03 at cycle   3 NSaved=   3.
 NSaved= 3 IEnMin= 3 EnMin= -2868.82606507506     IErMin= 3 ErrMin= 7.29D-03
 ErrMax= 7.29D-03  0.00D+00 EMaxC= 1.00D-01 BMatC= 7.49D-02 BMatP= 1.43D-01
 IDIUse=3 WtCom= 9.27D-01 WtEn= 7.29D-02
 Coeff-Com: -0.855D-01 0.453D+00 0.632D+00
 Coeff-En:   0.000D+00 0.000D+00 0.100D+01
 Coeff:     -0.793D-01 0.420D+00 0.659D+00
 Gap=     0.196 Goal=   None    Shift=    0.000
 RMSDP=3.12D-04 MaxDP=3.90D-02 DE=-6.78D-01 OVMax= 6.94D-02

 Cycle   4  Pass 0  IDiag  1:
 RMSU=  2.38D-04    CP:  9.71D-01  1.15D+00  6.93D-01
 E= -2868.87367786573     Delta-E=       -0.047612790679 Rises=F Damp=F
 DIIS: error= 2.89D-03 at cycle   4 NSaved=   4.
 NSaved= 4 IEnMin= 4 EnMin= -2868.87367786573     IErMin= 4 ErrMin= 2.89D-03
 ErrMax= 2.89D-03  0.00D+00 EMaxC= 1.00D-01 BMatC= 1.38D-02 BMatP= 7.49D-02
 IDIUse=3 WtCom= 9.71D-01 WtEn= 2.89D-02
 Coeff-Com: -0.264D-01 0.801D-01 0.332D+00 0.614D+00
 Coeff-En:   0.000D+00 0.000D+00 0.151D+00 0.849D+00
 Coeff:     -0.257D-01 0.778D-01 0.327D+00 0.621D+00
 Gap=     0.189 Goal=   None    Shift=    0.000
 RMSDP=1.29D-04 MaxDP=1.02D-02 DE=-4.76D-02 OVMax= 1.87D-02

 Cycle   5  Pass 0  IDiag  1:
 RMSU=  5.79D-05    CP:  9.70D-01  1.15D+00  7.86D-01  5.86D-01
 E= -2868.88471582799     Delta-E=       -0.011037962251 Rises=F Damp=F
 DIIS: error= 5.23D-04 at cycle   5 NSaved=   5.
 NSaved= 5 IEnMin= 5 EnMin= -2868.88471582799     IErMin= 5 ErrMin= 5.23D-04
 ErrMax= 5.23D-04  0.00D+00 EMaxC= 1.00D-01 BMatC= 7.58D-04 BMatP= 1.38D-02
 IDIUse=3 WtCom= 9.95D-01 WtEn= 5.23D-03
 Coeff-Com: -0.902D-02 0.205D-01 0.138D+00 0.315D+00 0.535D+00
 Coeff-En:   0.000D+00 0.000D+00 0.000D+00 0.000D+00 0.100D+01
 Coeff:     -0.897D-02 0.204D-01 0.137D+00 0.314D+00 0.538D+00
 Gap=     0.190 Goal=   None    Shift=    0.000
 RMSDP=3.40D-05 MaxDP=2.41D-03 DE=-1.10D-02 OVMax= 5.05D-03

 Cycle   6  Pass 0  IDiag  1:
 RMSU=  1.84D-05    CP:  9.70D-01  1.15D+00  7.82D-01  6.50D-01  5.88D-01
 E= -2868.88540786548     Delta-E=       -0.000692037496 Rises=F Damp=F
 DIIS: error= 1.43D-04 at cycle   6 NSaved=   6.
 NSaved= 6 IEnMin= 6 EnMin= -2868.88540786548     IErMin= 6 ErrMin= 1.43D-04
 ErrMax= 1.43D-04  0.00D+00 EMaxC= 1.00D-01 BMatC= 5.03D-05 BMatP= 7.58D-04
 IDIUse=3 WtCom= 9.99D-01 WtEn= 1.43D-03
 Coeff-Com: -0.124D-02 0.119D-02 0.287D-01 0.785D-01 0.248D+00 0.644D+00
 Coeff-En:   0.000D+00 0.000D+00 0.000D+00 0.000D+00 0.000D+00 0.100D+01
 Coeff:     -0.124D-02 0.119D-02 0.287D-01 0.784D-01 0.248D+00 0.645D+00
 Gap=     0.190 Goal=   None    Shift=    0.000
 RMSDP=9.47D-06 MaxDP=6.78D-04 DE=-6.92D-04 OVMax= 1.61D-03

 Initial convergence to 1.0D-05 achieved.  Increase integral accuracy.
 Cycle   7  Pass 1  IDiag  1:
 E= -2868.88527142295     Delta-E=        0.000136442532 Rises=F Damp=F
 DIIS: error= 3.12D-04 at cycle   1 NSaved=   1.
 NSaved= 1 IEnMin= 1 EnMin= -2868.88527142295     IErMin= 1 ErrMin= 3.12D-04
 ErrMax= 3.12D-04  0.00D+00 EMaxC= 1.00D-01 BMatC= 7.18D-05 BMatP= 7.18D-05
 IDIUse=3 WtCom= 9.97D-01 WtEn= 3.12D-03
 Coeff-Com:  0.100D+01
 Coeff-En:   0.100D+01
 Coeff:      0.100D+01
 Gap=     0.191 Goal=   None    Shift=    0.000
 RMSDP=9.47D-06 MaxDP=6.78D-04 DE= 1.36D-04 OVMax= 1.30D-03

 Cycle   8  Pass 1  IDiag  1:
 RMSU=  1.36D-04    CP:  1.00D+00
 E= -2868.88531828146     Delta-E=       -0.000046858511 Rises=F Damp=F
 DIIS: error= 1.25D-04 at cycle   2 NSaved=   2.
 NSaved= 2 IEnMin= 2 EnMin= -2868.88531828146     IErMin= 2 ErrMin= 1.25D-04
 ErrMax= 1.25D-04  0.00D+00 EMaxC= 1.00D-01 BMatC= 1.71D-05 BMatP= 7.18D-05
 IDIUse=3 WtCom= 9.99D-01 WtEn= 1.25D-03
 Coeff-Com:  0.243D+00 0.757D+00
 Coeff-En:   0.000D+00 0.100D+01
 Coeff:      0.243D+00 0.757D+00
 Gap=     0.190 Goal=   None    Shift=    0.000
 RMSDP=8.23D-06 MaxDP=1.08D-03 DE=-4.69D-05 OVMax= 2.05D-03

 Cycle   9  Pass 1  IDiag  1:
 RMSU=  7.95D-06    CP:  1.00D+00  1.02D+00
 E= -2868.88531584699     Delta-E=        0.000002434468 Rises=F Damp=F
 DIIS: error= 1.50D-04 at cycle   3 NSaved=   3.
 NSaved= 3 IEnMin= 2 EnMin= -2868.88531828146     IErMin= 2 ErrMin= 1.25D-04
 ErrMax= 1.50D-04  0.00D+00 EMaxC= 1.00D-01 BMatC= 2.01D-05 BMatP= 1.71D-05
 IDIUse=3 WtCom= 4.50D-01 WtEn= 5.50D-01
 Coeff-Com: -0.533D-02 0.522D+00 0.484D+00
 Coeff-En:   0.000D+00 0.529D+00 0.471D+00
 Coeff:     -0.240D-02 0.526D+00 0.476D+00
 Gap=     0.191 Goal=   None    Shift=    0.000
 RMSDP=4.27D-06 MaxDP=5.90D-04 DE= 2.43D-06 OVMax= 1.30D-03

 Cycle  10  Pass 1  IDiag  1:
 RMSU=  1.15D-06    CP:  1.00D+00  1.03D+00  5.07D-01
 E= -2868.88533328580     Delta-E=       -0.000017438804 Rises=F Damp=F
 DIIS: error= 2.68D-05 at cycle   4 NSaved=   4.
 NSaved= 4 IEnMin= 4 EnMin= -2868.88533328580     IErMin= 4 ErrMin= 2.68D-05
 ErrMax= 2.68D-05  0.00D+00 EMaxC= 1.00D-01 BMatC= 3.94D-07 BMatP= 1.71D-05
 IDIUse=1 WtCom= 1.00D+00 WtEn= 0.00D+00
 Coeff-Com: -0.850D-02 0.292D+00 0.278D+00 0.439D+00
 Coeff:     -0.850D-02 0.292D+00 0.278D+00 0.439D+00
 Gap=     0.191 Goal=   None    Shift=    0.000
 RMSDP=5.60D-07 MaxDP=1.05D-04 DE=-1.74D-05 OVMax= 1.76D-04

 Cycle  11  Pass 1  IDiag  1:
 RMSU=  4.19D-07    CP:  1.00D+00  1.03D+00  5.00D-01  6.91D-01
 E= -2868.88533358088     Delta-E=       -0.000000295084 Rises=F Damp=F
 DIIS: error= 4.31D-06 at cycle   5 NSaved=   5.
 NSaved= 5 IEnMin= 5 EnMin= -2868.88533358088     IErMin= 5 ErrMin= 4.31D-06
 ErrMax= 4.31D-06  0.00D+00 EMaxC= 1.00D-01 BMatC= 1.02D-08 BMatP= 3.94D-07
 IDIUse=1 WtCom= 1.00D+00 WtEn= 0.00D+00
 Coeff-Com: -0.374D-02 0.113D+00 0.108D+00 0.202D+00 0.581D+00
 Coeff:     -0.374D-02 0.113D+00 0.108D+00 0.202D+00 0.581D+00
 Gap=     0.191 Goal=   None    Shift=    0.000
 RMSDP=1.35D-07 MaxDP=1.25D-05 DE=-2.95D-07 OVMax= 3.16D-05

 Cycle  12  Pass 1  IDiag  1:
 RMSU=  1.27D-07    CP:  1.00D+00  1.03D+00  5.04D-01  7.10D-01  9.54D-01
 E= -2868.88533358963     Delta-E=       -0.000000008748 Rises=F Damp=F
 DIIS: error= 1.48D-06 at cycle   6 NSaved=   6.
 NSaved= 6 IEnMin= 6 EnMin= -2868.88533358963     IErMin= 6 ErrMin= 1.48D-06
 ErrMax= 1.48D-06  0.00D+00 EMaxC= 1.00D-01 BMatC= 1.95D-09 BMatP= 1.02D-08
 IDIUse=1 WtCom= 1.00D+00 WtEn= 0.00D+00
 Coeff-Com:  0.477D-03-0.236D-01-0.226D-01-0.249D-01 0.284D+00 0.786D+00
 Coeff:      0.477D-03-0.236D-01-0.226D-01-0.249D-01 0.284D+00 0.786D+00
 Gap=     0.191 Goal=   None    Shift=    0.000
 RMSDP=7.00D-08 MaxDP=4.10D-06 DE=-8.75D-09 OVMax= 1.35D-05

 Cycle  13  Pass 1  IDiag  1:
 RMSU=  4.90D-08    CP:  1.00D+00  1.03D+00  5.02D-01  7.25D-01  1.05D+00
                    CP:  8.69D-01
 E= -2868.88533359188     Delta-E=       -0.000000002256 Rises=F Damp=F
 DIIS: error= 3.23D-07 at cycle   7 NSaved=   7.
 NSaved= 7 IEnMin= 7 EnMin= -2868.88533359188     IErMin= 7 ErrMin= 3.23D-07
 ErrMax= 3.23D-07  0.00D+00 EMaxC= 1.00D-01 BMatC= 2.90D-10 BMatP= 1.95D-09
 IDIUse=1 WtCom= 1.00D+00 WtEn= 0.00D+00
 Coeff-Com:  0.675D-03-0.252D-01-0.241D-01-0.372D-01 0.828D-01 0.402D+00
 Coeff-Com:  0.601D+00
 Coeff:      0.675D-03-0.252D-01-0.241D-01-0.372D-01 0.828D-01 0.402D+00
 Coeff:      0.601D+00
 Gap=     0.191 Goal=   None    Shift=    0.000
 RMSDP=2.29D-08 MaxDP=1.66D-06 DE=-2.26D-09 OVMax= 4.39D-06

 Cycle  14  Pass 1  IDiag  1:
 RMSU=  1.87D-08    CP:  1.00D+00  1.03D+00  5.03D-01  7.28D-01  1.06D+00
                    CP:  9.48D-01  9.62D-01
 E= -2868.88533359216     Delta-E=       -0.000000000275 Rises=F Damp=F
 DIIS: error= 8.06D-08 at cycle   8 NSaved=   8.
 NSaved= 8 IEnMin= 8 EnMin= -2868.88533359216     IErMin= 8 ErrMin= 8.06D-08
 ErrMax= 8.06D-08  0.00D+00 EMaxC= 1.00D-01 BMatC= 2.29D-11 BMatP= 2.90D-10
 IDIUse=1 WtCom= 1.00D+00 WtEn= 0.00D+00
 Coeff-Com:  0.208D-03-0.709D-02-0.684D-02-0.120D-01 0.186D-02 0.668D-01
 Coeff-Com:  0.233D+00 0.724D+00
 Coeff:      0.208D-03-0.709D-02-0.684D-02-0.120D-01 0.186D-02 0.668D-01
 Coeff:      0.233D+00 0.724D+00
 Gap=     0.191 Goal=   None    Shift=    0.000
 RMSDP=7.70D-09 MaxDP=6.43D-07 DE=-2.75D-10 OVMax= 1.61D-06

 SCF Done:  E(RM062X) =  -2868.88533359     A.U. after   14 cycles
            NFock= 14  Conv=0.77D-08     -V/T= 2.0079
 KE= 2.846352494358D+03 PE=-2.519896423220D+04 EE= 1.023002435109D+04
 Leave Link  502 at Sun Nov  6 04:20:31 2022, MaxMem=  8053063680 cpu:            4681.6 elap:             293.2
 (Enter /project/chenjingdan/g16/l801.exe)
 DoSCS=F DFT=T ScalE2(SS,OS)=  1.000000  1.000000
 Range of M.O.s used for correlation:     1  1084
 NBasis=  1084 NAE=   208 NBE=   208 NFC=     0 NFV=     0
 NROrb=   1084 NOA=   208 NOB=   208 NVA=   876 NVB=   876
 Leave Link  801 at Sun Nov  6 04:20:31 2022, MaxMem=  8053063680 cpu:               0.5 elap:               0.1
 (Enter /project/chenjingdan/g16/l1101.exe)
 Using compressed storage, NAtomX=   102.
 Will process    103 centers per pass.
 Leave Link 1101 at Sun Nov  6 04:20:35 2022, MaxMem=  8053063680 cpu:              66.7 elap:               4.2
 (Enter /project/chenjingdan/g16/l1102.exe)
 Symmetrizing basis deriv contribution to polar:
 IMax=3 JMax=2 DiffMx= 0.00D+00
 Leave Link 1102 at Sun Nov  6 04:20:35 2022, MaxMem=  8053063680 cpu:               2.6 elap:               0.2
 (Enter /project/chenjingdan/g16/l1110.exe)
 Forming Gx(P) for the SCF density, NAtomX=   102.
 Integral derivatives from FoFJK, PRISM(SPDF).
 Do as many integral derivatives as possible in FoFJK.
 G2DrvN: MDV=    8053053038.
 G2DrvN: will do   103 centers at a time, making    1 passes.
 Calling FoFCou, ICntrl=  3107 FMM=T I1Cent=   0 AccDes= 0.00D+00.
 FoFJK:  IHMeth= 1 ICntrl=    3107 DoSepK=F KAlg= 0 I1Cent=           0 FoldK=F
 IRaf=         0 NMat=       1 IRICut=       1 DoRegI=T DoRafI=F ISym2E= 0 IDoP0=0 IntGTp=1.
 FoFCou: FMM=T IPFlag=           0 FMFlag=      100000 FMFlg1=        2001
         NFxFlg=           0 DoJE=F BraDBF=F KetDBF=F FulRan=T
         wScrn=  0.000000 ICntrl=      3107 IOpCl=  0 I1Cent=           0 NGrid=           0
         NMat0=    1 NMatS0=      1 NMatT0=    0 NMatD0=    1 NMtDS0=    0 NMtDT0=    0
 Symmetry not used in FoFCou.
 FMM levels:  10  Number of levels for PrismC:   9
 End of G2Drv F.D. properties file   721 does not exist.
 End of G2Drv F.D. properties file   722 does not exist.
 End of G2Drv F.D. properties file   788 does not exist.
 Leave Link 1110 at Sun Nov  6 04:52:54 2022, MaxMem=  8053063680 cpu:           31021.7 elap:            1939.0
 (Enter /project/chenjingdan/g16/l1002.exe)
 Minotr:  Closed shell wavefunction.
          IDoAtm=11111111111111111111111111111111111111111111111111
          IDoAtm=11111111111111111111111111111111111111111111111111
          IDoAtm=11
          Direct CPHF calculation.
          Differentiating once with respect to nuclear coordinates.
          Requested convergence is 1.0D-08 RMS, and 1.0D-07 maximum.
          Secondary convergence is 1.0D-12 RMS, and 1.0D-12 maximum.
          NewPWx=T KeepS1=F KeepF1=F KeepIn=T MapXYZ=F SortEE=F KeepMc=T.
        30943 words used for storage of precomputed grid.
 Two-electron integral symmetry not used.
          MDV=    8053063680 using IRadAn=       1.
          Solving linear equations simultaneously, MaxMat=      72.
 FoF2E skips out because all densities are zero.
 CalDSu exits because no D1Ps are significant.
 FoFJK:  IHMeth= 1 ICntrl=       0 DoSepK=F KAlg= 0 I1Cent=           0 FoldK=F
 IRaf= 690000000 NMat=      72 IRICut=       1 DoRegI=T DoRafI=F ISym2E= 0 IDoP0=0 IntGTp=1.
 FoFCou: FMM=T IPFlag=           0 FMFlag=      100000 FMFlg1=        2001
         NFxFlg=           0 DoJE=F BraDBF=F KetDBF=F FulRan=T
         wScrn=  0.000000 ICntrl=         0 IOpCl=  0 I1Cent=           0 NGrid=           0
         NMat0=   72 NMatS0=     72 NMatT0=    0 NMatD0=   72 NMtDS0=    0 NMtDT0=    0
 Symmetry not used in FoFCou.
 FMM levels:  10  Number of levels for PrismC:   9
          There are   309 degrees of freedom in the 1st order CPHF.  IDoFFX=6 NUNeed=     0.
    306 vectors produced by pass  0 Test12= 1.82D-13 1.00D-09 XBig12= 2.09D-01 1.02D-01.
 AX will form    72 AO Fock derivatives at one time.
    303 vectors produced by pass  1 Test12= 1.82D-13 1.00D-09 XBig12= 1.40D-01 1.53D-01.
    303 vectors produced by pass  2 Test12= 1.82D-13 1.00D-09 XBig12= 3.51D-03 1.70D-02.
    303 vectors produced by pass  3 Test12= 1.82D-13 1.00D-09 XBig12= 3.10D-05 8.32D-04.
    303 vectors produced by pass  4 Test12= 1.82D-13 1.00D-09 XBig12= 2.41D-07 4.16D-05.
    303 vectors produced by pass  5 Test12= 1.82D-13 1.00D-09 XBig12= 9.77D-10 5.10D-06.
    188 vectors produced by pass  6 Test12= 1.82D-13 1.00D-09 XBig12= 3.51D-12 2.91D-07.
     14 vectors produced by pass  7 Test12= 1.82D-13 1.00D-09 XBig12= 1.17D-14 9.38D-09.
      3 vectors produced by pass  8 Test12= 1.82D-13 1.00D-09 XBig12= 1.38D-14 2.79D-09.
      3 vectors produced by pass  9 Test12= 1.82D-13 1.00D-09 XBig12= 1.07D-14 2.51D-09.
      2 vectors produced by pass 10 Test12= 1.82D-13 1.00D-09 XBig12= 5.89D-15 1.83D-09.
 InvSVY:  IOpt=1 It=  1 EMax= 3.89D-16
 Solved reduced A of dimension  2031 with   309 vectors.
 End of Minotr F.D. properties file   721 does not exist.
 End of Minotr F.D. properties file   722 does not exist.
 End of Minotr F.D. properties file   788 does not exist.
 Leave Link 1002 at Sun Nov  6 06:34:29 2022, MaxMem=  8053063680 cpu:           97486.9 elap:            6094.6
 (Enter /project/chenjingdan/g16/l601.exe)
 Copying SCF densities to generalized density rwf, IOpCl= 0 IROHF=0.
 Hyperfine terms turned off by default for NAtoms > 100.

 **********************************************************************

            Population analysis using the SCF Density.

 **********************************************************************

 Alpha  occ. eigenvalues --  -78.20687 -19.69035 -19.68785 -19.68771 -19.67784
 Alpha  occ. eigenvalues --  -19.67771 -19.67421 -19.66986 -19.62832 -19.61244
 Alpha  occ. eigenvalues --  -15.02342 -14.83336 -10.71825 -10.71541 -10.63550
 Alpha  occ. eigenvalues --  -10.62954 -10.61287 -10.61237 -10.61063 -10.59903
 Alpha  occ. eigenvalues --  -10.59817 -10.59794 -10.59721 -10.57345 -10.57021
 Alpha  occ. eigenvalues --  -10.55779 -10.55750 -10.55606 -10.55575 -10.55495
 Alpha  occ. eigenvalues --  -10.55468 -10.55265 -10.55244 -10.55242 -10.55209
 Alpha  occ. eigenvalues --  -10.55159 -10.55019 -10.54996 -10.54970 -10.54951
 Alpha  occ. eigenvalues --  -10.54889 -10.54887 -10.54872 -10.54871 -10.54848
 Alpha  occ. eigenvalues --  -10.54659 -10.54423 -10.54056 -10.53686 -10.53585
 Alpha  occ. eigenvalues --  -10.53440 -10.53369 -10.53302 -10.53180 -10.52782
 Alpha  occ. eigenvalues --  -10.52699 -10.52233  -6.98624  -5.10453  -5.10368
 Alpha  occ. eigenvalues --   -5.10305  -1.37834  -1.25614  -1.22916  -1.22592
 Alpha  occ. eigenvalues --   -1.19241  -1.17352  -1.16006  -1.12003  -1.09514
 Alpha  occ. eigenvalues --   -1.07749  -1.01865  -0.99692  -0.97354  -0.96370
 Alpha  occ. eigenvalues --   -0.95582  -0.94120  -0.92856  -0.90340  -0.90321
 Alpha  occ. eigenvalues --   -0.88915  -0.87747  -0.87038  -0.86871  -0.86810
 Alpha  occ. eigenvalues --   -0.85461  -0.83709  -0.83177  -0.81925  -0.81654
 Alpha  occ. eigenvalues --   -0.79088  -0.78348  -0.78259  -0.78249  -0.76163
 Alpha  occ. eigenvalues --   -0.75964  -0.75765  -0.75710  -0.75430  -0.73779
 Alpha  occ. eigenvalues --   -0.72441  -0.71364  -0.70928  -0.70477  -0.70090
 Alpha  occ. eigenvalues --   -0.67951  -0.67204  -0.67004  -0.66562  -0.66370
 Alpha  occ. eigenvalues --   -0.64872  -0.64318  -0.64260  -0.63933  -0.63525
 Alpha  occ. eigenvalues --   -0.63073  -0.62257  -0.61157  -0.61040  -0.60530
 Alpha  occ. eigenvalues --   -0.58741  -0.58078  -0.57732  -0.57281  -0.56830
 Alpha  occ. eigenvalues --   -0.56272  -0.56126  -0.55613  -0.55104  -0.55010
 Alpha  occ. eigenvalues --   -0.54889  -0.54648  -0.54498  -0.53599  -0.53444
 Alpha  occ. eigenvalues --   -0.53292  -0.52960  -0.52338  -0.51272  -0.51083
 Alpha  occ. eigenvalues --   -0.50316  -0.49822  -0.49534  -0.49355  -0.48856
 Alpha  occ. eigenvalues --   -0.48701  -0.48472  -0.48308  -0.48107  -0.47746
 Alpha  occ. eigenvalues --   -0.47617  -0.47366  -0.47166  -0.46965  -0.46583
 Alpha  occ. eigenvalues --   -0.46301  -0.46180  -0.46076  -0.45902  -0.45561
 Alpha  occ. eigenvalues --   -0.45408  -0.45317  -0.45263  -0.45034  -0.44863
 Alpha  occ. eigenvalues --   -0.44739  -0.44624  -0.44465  -0.43545  -0.43239
 Alpha  occ. eigenvalues --   -0.42835  -0.42683  -0.41769  -0.41598  -0.41467
 Alpha  occ. eigenvalues --   -0.41425  -0.41302  -0.40976  -0.40623  -0.40024
 Alpha  occ. eigenvalues --   -0.39686  -0.39556  -0.39526  -0.39156  -0.39020
 Alpha  occ. eigenvalues --   -0.38759  -0.38725  -0.38624  -0.38570  -0.38348
 Alpha  occ. eigenvalues --   -0.38177  -0.37689  -0.37574  -0.37318  -0.36964
 Alpha  occ. eigenvalues --   -0.36904  -0.36680  -0.35886  -0.34765  -0.34500
 Alpha  occ. eigenvalues --   -0.30018  -0.29749  -0.29404  -0.28146  -0.27790
 Alpha  occ. eigenvalues --   -0.27761  -0.26740  -0.26599
 Alpha virt. eigenvalues --   -0.07527  -0.01030  -0.00708   0.01558   0.01874
 Alpha virt. eigenvalues --    0.02103   0.02756   0.03129   0.04682   0.04885
 Alpha virt. eigenvalues --    0.05315   0.05460   0.06858   0.09506   0.11822
 Alpha virt. eigenvalues --    0.12219   0.13055   0.13958   0.14078   0.14429
 Alpha virt. eigenvalues --    0.14713   0.15313   0.15703   0.15957   0.16454
 Alpha virt. eigenvalues --    0.16721   0.16964   0.17321   0.17345   0.17561
 Alpha virt. eigenvalues --    0.17817   0.18001   0.18059   0.18451   0.18491
 Alpha virt. eigenvalues --    0.18964   0.19123   0.19145   0.19327   0.19985
 Alpha virt. eigenvalues --    0.20057   0.20391   0.20443   0.20629   0.20960
 Alpha virt. eigenvalues --    0.21112   0.21248   0.21576   0.21759   0.21975
 Alpha virt. eigenvalues --    0.22238   0.22326   0.22401   0.22900   0.23120
 Alpha virt. eigenvalues --    0.23614   0.23813   0.24010   0.24104   0.24318
 Alpha virt. eigenvalues --    0.24800   0.24945   0.25111   0.25218   0.25654
 Alpha virt. eigenvalues --    0.25766   0.26205   0.26568   0.26648   0.27278
 Alpha virt. eigenvalues --    0.27510   0.27763   0.28354   0.28756   0.28958
 Alpha virt. eigenvalues --    0.29318   0.29374   0.29656   0.29732   0.29929
 Alpha virt. eigenvalues --    0.30768   0.31260   0.31465   0.31589   0.31856
 Alpha virt. eigenvalues --    0.32045   0.32298   0.32458   0.32798   0.33251
 Alpha virt. eigenvalues --    0.33527   0.34118   0.34173   0.35714   0.36744
 Alpha virt. eigenvalues --    0.37476   0.37751   0.37931   0.38832   0.39460
 Alpha virt. eigenvalues --    0.39791   0.40507   0.40754   0.41463   0.41640
 Alpha virt. eigenvalues --    0.41958   0.42285   0.42441   0.42670   0.43467
 Alpha virt. eigenvalues --    0.43735   0.43860   0.44342   0.44902   0.45742
 Alpha virt. eigenvalues --    0.46525   0.46688   0.46995   0.47379   0.48030
 Alpha virt. eigenvalues --    0.48827   0.49211   0.49772   0.50865   0.51841
 Alpha virt. eigenvalues --    0.52101   0.52705   0.53232   0.53711   0.54100
 Alpha virt. eigenvalues --    0.54520   0.54975   0.55276   0.55507   0.55636
 Alpha virt. eigenvalues --    0.55825   0.56046   0.56495   0.56970   0.57330
 Alpha virt. eigenvalues --    0.57444   0.57745   0.57879   0.58121   0.58525
 Alpha virt. eigenvalues --    0.58666   0.59214   0.59459   0.59653   0.59891
 Alpha virt. eigenvalues --    0.60041   0.60434   0.60608   0.60679   0.61077
 Alpha virt. eigenvalues --    0.61166   0.61451   0.61818   0.61948   0.62316
 Alpha virt. eigenvalues --    0.62412   0.62575   0.62898   0.63099   0.63179
 Alpha virt. eigenvalues --    0.63510   0.63559   0.64166   0.64590   0.64955
 Alpha virt. eigenvalues --    0.64975   0.65305   0.65620   0.65825   0.65976
 Alpha virt. eigenvalues --    0.66361   0.66641   0.66993   0.67105   0.67344
 Alpha virt. eigenvalues --    0.67792   0.68490   0.69141   0.69384   0.69539
 Alpha virt. eigenvalues --    0.70117   0.70777   0.70820   0.71149   0.71909
 Alpha virt. eigenvalues --    0.72014   0.72380   0.72835   0.73253   0.73893
 Alpha virt. eigenvalues --    0.74229   0.74315   0.74481   0.74787   0.75343
 Alpha virt. eigenvalues --    0.76023   0.76856   0.77041   0.77375   0.77853
 Alpha virt. eigenvalues --    0.78273   0.78472   0.78730   0.79096   0.79159
 Alpha virt. eigenvalues --    0.79502   0.79790   0.79918   0.80046   0.80375
 Alpha virt. eigenvalues --    0.80808   0.81122   0.81729   0.81829   0.82374
 Alpha virt. eigenvalues --    0.82869   0.83036   0.83266   0.83466   0.83731
 Alpha virt. eigenvalues --    0.83878   0.84470   0.84677   0.85386   0.85502
 Alpha virt. eigenvalues --    0.85765   0.86009   0.86248   0.86560   0.87014
 Alpha virt. eigenvalues --    0.87269   0.87528   0.87742   0.88192   0.88592
 Alpha virt. eigenvalues --    0.88779   0.89019   0.89173   0.89397   0.89461
 Alpha virt. eigenvalues --    0.89683   0.90193   0.90528   0.90893   0.91531
 Alpha virt. eigenvalues --    0.91783   0.92145   0.92377   0.92567   0.92933
 Alpha virt. eigenvalues --    0.93173   0.93290   0.93395   0.93740   0.94245
 Alpha virt. eigenvalues --    0.94509   0.94599   0.95052   0.95286   0.95387
 Alpha virt. eigenvalues --    0.95679   0.95853   0.96493   0.96774   0.97041
 Alpha virt. eigenvalues --    0.97251   0.97455   0.97840   0.98039   0.98474
 Alpha virt. eigenvalues --    0.98718   0.98813   0.99171   0.99392   0.99796
 Alpha virt. eigenvalues --    1.00160   1.00610   1.00797   1.01148   1.01825
 Alpha virt. eigenvalues --    1.02051   1.02293   1.02565   1.02838   1.03353
 Alpha virt. eigenvalues --    1.03557   1.03708   1.04486   1.05034   1.05199
 Alpha virt. eigenvalues --    1.05317   1.05840   1.06509   1.06702   1.07249
 Alpha virt. eigenvalues --    1.07426   1.07725   1.08311   1.08488   1.09319
 Alpha virt. eigenvalues --    1.09442   1.09858   1.10456   1.10567   1.10811
 Alpha virt. eigenvalues --    1.11104   1.11739   1.11951   1.12581   1.12654
 Alpha virt. eigenvalues --    1.13157   1.13965   1.14239   1.14850   1.15235
 Alpha virt. eigenvalues --    1.15750   1.16462   1.16677   1.17251   1.18097
 Alpha virt. eigenvalues --    1.18768   1.18907   1.19382   1.20114   1.20584
 Alpha virt. eigenvalues --    1.21132   1.21768   1.22250   1.22776   1.23048
 Alpha virt. eigenvalues --    1.23714   1.23796   1.23975   1.24527   1.25132
 Alpha virt. eigenvalues --    1.25402   1.26096   1.26249   1.26980   1.27449
 Alpha virt. eigenvalues --    1.28072   1.28148   1.28894   1.29429   1.29872
 Alpha virt. eigenvalues --    1.30040   1.30480   1.30845   1.31497   1.31849
 Alpha virt. eigenvalues --    1.32016   1.32600   1.33232   1.33469   1.34394
 Alpha virt. eigenvalues --    1.34564   1.35153   1.35973   1.36222   1.36709
 Alpha virt. eigenvalues --    1.37294   1.37585   1.37979   1.38470   1.39150
 Alpha virt. eigenvalues --    1.39232   1.39599   1.40209   1.40294   1.40785
 Alpha virt. eigenvalues --    1.41145   1.41349   1.41557   1.42106   1.42631
 Alpha virt. eigenvalues --    1.43016   1.43245   1.43453   1.44127   1.44537
 Alpha virt. eigenvalues --    1.44744   1.45445   1.45761   1.46143   1.46592
 Alpha virt. eigenvalues --    1.46743   1.47317   1.47636   1.47901   1.48336
 Alpha virt. eigenvalues --    1.49147   1.49695   1.50033   1.51172   1.51757
 Alpha virt. eigenvalues --    1.51956   1.53303   1.53530   1.54003   1.54472
 Alpha virt. eigenvalues --    1.55187   1.55641   1.56354   1.56818   1.58682
 Alpha virt. eigenvalues --    1.59713   1.59967   1.60585   1.61599   1.62350
 Alpha virt. eigenvalues --    1.62711   1.63282   1.64174   1.65596   1.66541
 Alpha virt. eigenvalues --    1.66934   1.68082   1.68758   1.69408   1.70597
 Alpha virt. eigenvalues --    1.70872   1.71367   1.71678   1.72816   1.73219
 Alpha virt. eigenvalues --    1.73482   1.73752   1.73979   1.74095   1.74433
 Alpha virt. eigenvalues --    1.75210   1.76341   1.76740   1.76842   1.77148
 Alpha virt. eigenvalues --    1.77409   1.78057   1.78473   1.78857   1.79159
 Alpha virt. eigenvalues --    1.79350   1.79717   1.80546   1.80662   1.80964
 Alpha virt. eigenvalues --    1.81625   1.81775   1.82209   1.82362   1.82562
 Alpha virt. eigenvalues --    1.83148   1.83417   1.83571   1.83854   1.84080
 Alpha virt. eigenvalues --    1.84458   1.84835   1.85176   1.85208   1.85556
 Alpha virt. eigenvalues --    1.85828   1.85935   1.86432   1.86671   1.87032
 Alpha virt. eigenvalues --    1.87369   1.87423   1.87679   1.88410   1.88821
 Alpha virt. eigenvalues --    1.89235   1.89722   1.90019   1.90379   1.90541
 Alpha virt. eigenvalues --    1.90747   1.91092   1.91249   1.91747   1.91981
 Alpha virt. eigenvalues --    1.92424   1.92675   1.93135   1.93384   1.93913
 Alpha virt. eigenvalues --    1.94095   1.94434   1.95322   1.95424   1.95732
 Alpha virt. eigenvalues --    1.96241   1.96496   1.97246   1.97469   1.98043
 Alpha virt. eigenvalues --    1.98422   1.98685   1.98798   1.99379   2.00138
 Alpha virt. eigenvalues --    2.00556   2.00779   2.01215   2.01380   2.02120
 Alpha virt. eigenvalues --    2.02481   2.02553   2.02805   2.03965   2.04203
 Alpha virt. eigenvalues --    2.04402   2.04607   2.04938   2.05419   2.06159
 Alpha virt. eigenvalues --    2.06326   2.06666   2.07262   2.07662   2.07968
 Alpha virt. eigenvalues --    2.08060   2.08237   2.08817   2.09277   2.09438
 Alpha virt. eigenvalues --    2.09481   2.09891   2.10248   2.10495   2.11001
 Alpha virt. eigenvalues --    2.11421   2.11802   2.11984   2.12413   2.12678
 Alpha virt. eigenvalues --    2.13114   2.13241   2.13625   2.13785   2.14074
 Alpha virt. eigenvalues --    2.14148   2.14347   2.14590   2.15078   2.15128
 Alpha virt. eigenvalues --    2.15601   2.15984   2.16076   2.16422   2.16556
 Alpha virt. eigenvalues --    2.16715   2.17314   2.17827   2.18018   2.18212
 Alpha virt. eigenvalues --    2.18607   2.18797   2.19159   2.19434   2.19870
 Alpha virt. eigenvalues --    2.19991   2.20548   2.20908   2.21568   2.21678
 Alpha virt. eigenvalues --    2.22291   2.22513   2.23504   2.24439   2.24754
 Alpha virt. eigenvalues --    2.25000   2.25451   2.25802   2.26343   2.26399
 Alpha virt. eigenvalues --    2.27294   2.27428   2.27749   2.28187   2.28422
 Alpha virt. eigenvalues --    2.28900   2.29351   2.29516   2.29998   2.30811
 Alpha virt. eigenvalues --    2.31016   2.31320   2.31546   2.31839   2.32439
 Alpha virt. eigenvalues --    2.32613   2.32988   2.34438   2.35153   2.35374
 Alpha virt. eigenvalues --    2.35670   2.36958   2.37403   2.38053   2.39098
 Alpha virt. eigenvalues --    2.39588   2.40237   2.40476   2.40801   2.40976
 Alpha virt. eigenvalues --    2.41258   2.41612   2.41977   2.42198   2.42355
 Alpha virt. eigenvalues --    2.42503   2.43045   2.43192   2.43597   2.43801
 Alpha virt. eigenvalues --    2.44205   2.44465   2.45243   2.45709   2.46263
 Alpha virt. eigenvalues --    2.46762   2.47124   2.47501   2.47856   2.48263
 Alpha virt. eigenvalues --    2.48508   2.48700   2.49315   2.49713   2.49963
 Alpha virt. eigenvalues --    2.50614   2.51158   2.52287   2.52409   2.52823
 Alpha virt. eigenvalues --    2.53295   2.53885   2.54216   2.55637   2.55833
 Alpha virt. eigenvalues --    2.56166   2.56484   2.57370   2.57787   2.58167
 Alpha virt. eigenvalues --    2.58656   2.58937   2.59224   2.59566   2.59823
 Alpha virt. eigenvalues --    2.60182   2.60807   2.61225   2.61418   2.61775
 Alpha virt. eigenvalues --    2.62044   2.62675   2.63016   2.63692   2.64079
 Alpha virt. eigenvalues --    2.64245   2.64711   2.65524   2.65703   2.66073
 Alpha virt. eigenvalues --    2.66449   2.66773   2.67035   2.67437   2.67713
 Alpha virt. eigenvalues --    2.68491   2.68780   2.69096   2.69525   2.69602
 Alpha virt. eigenvalues --    2.69764   2.70372   2.70536   2.71042   2.71293
 Alpha virt. eigenvalues --    2.71730   2.72104   2.72349   2.72525   2.73095
 Alpha virt. eigenvalues --    2.73198   2.73938   2.74307   2.74600   2.75097
 Alpha virt. eigenvalues --    2.76422   2.76788   2.77531   2.78161   2.78798
 Alpha virt. eigenvalues --    2.79121   2.79595   2.79963   2.80754   2.80987
 Alpha virt. eigenvalues --    2.81523   2.81759   2.81940   2.82177   2.82588
 Alpha virt. eigenvalues --    2.82907   2.83299   2.83842   2.84287   2.84497
 Alpha virt. eigenvalues --    2.85006   2.85167   2.86215   2.86647   2.87024
 Alpha virt. eigenvalues --    2.87589   2.87899   2.88203   2.88583   2.88758
 Alpha virt. eigenvalues --    2.89151   2.89407   2.89870   2.90381   2.90672
 Alpha virt. eigenvalues --    2.90980   2.91455   2.92144   2.92579   2.93159
 Alpha virt. eigenvalues --    2.93396   2.94350   2.94526   2.95103   2.96141
 Alpha virt. eigenvalues --    2.98701   2.98888   3.00139   3.02078   3.02270
 Alpha virt. eigenvalues --    3.02723   3.02963   3.03143   3.04563   3.05163
 Alpha virt. eigenvalues --    3.07393   3.07642   3.09149   3.09414   3.09723
 Alpha virt. eigenvalues --    3.10561   3.10796   3.10967   3.13558   3.14735
 Alpha virt. eigenvalues --    3.16977   3.17394   3.18335   3.18540   3.19318
 Alpha virt. eigenvalues --    3.20372   3.21351   3.22114   3.22437   3.22459
 Alpha virt. eigenvalues --    3.22688   3.23683   3.24067   3.24600   3.24830
 Alpha virt. eigenvalues --    3.25852   3.27078   3.27427   3.27837   3.29781
 Alpha virt. eigenvalues --    3.29945   3.31019   3.31080   3.32127   3.32330
 Alpha virt. eigenvalues --    3.33990   3.34378   3.35319   3.37389   3.38377
 Alpha virt. eigenvalues --    3.40693   3.41713   3.42482   3.42697   3.43897
 Alpha virt. eigenvalues --    3.44715   3.44905   3.45019   3.45242   3.45995
 Alpha virt. eigenvalues --    3.46064   3.46226   3.46645   3.46864   3.47289
 Alpha virt. eigenvalues --    3.47689   3.48127   3.49347   3.50229   3.51347
 Alpha virt. eigenvalues --    3.51751   3.56817   3.59178   3.64063   3.66847
 Alpha virt. eigenvalues --    3.68888   3.69175   3.74345   3.74829   3.76776
 Alpha virt. eigenvalues --    3.80294   3.94480   4.01370   4.03945   4.11889
 Alpha virt. eigenvalues --    4.13240   4.16191   4.17587   4.17672   4.18048
 Alpha virt. eigenvalues --    4.18267   4.20455   4.21244   4.21394   4.23112
 Alpha virt. eigenvalues --    4.23951   4.25062   4.26269   4.26910   4.28139
 Alpha virt. eigenvalues --    4.29648   4.31649   4.35429   4.37880   4.39599
 Alpha virt. eigenvalues --    4.40499   4.41217   4.42398   4.43200   4.44566
 Alpha virt. eigenvalues --    4.45676   4.47196   4.48705   4.49774   4.50188
 Alpha virt. eigenvalues --    4.51044   4.52945   4.54965   4.55896   4.57960
 Alpha virt. eigenvalues --    4.59960   4.61680   4.62329   4.63443   4.63752
 Alpha virt. eigenvalues --    4.65456   4.70899   4.73088   4.75567   4.84093
 Alpha virt. eigenvalues --    4.84887   4.86377   4.88156   4.91123   4.97039
 Alpha virt. eigenvalues --    5.00339
          Condensed to atoms (all electrons):
 Mulliken charges:
               1
     1  O   -0.537489
     2  N   -0.567370
     3  O   -0.557531
     4  O   -0.598078
     5  C   -0.349089
     6  N    0.424719
     7  C    0.203065
     8  C    0.676908
     9  C    0.027317
    10  C   -0.126655
    11  C    0.632258
    12  C   -0.117908
    13  C   -0.115610
    14  C   -0.136687
    15  C   -0.123322
    16  O   -0.398952
    17  O   -0.397496
    18  H    0.479836
    19  H    0.397613
    20  H    0.463065
    21  H    0.146600
    22  H    0.154137
    23  H    0.154176
    24  H    0.174459
    25  H    0.188219
    26  H    0.174755
    27  H    0.190990
    28  O   -0.684320
    29  O   -0.625860
    30  C   -0.408259
    31  O   -0.644435
    32  C   -0.410990
    33  C   -0.387186
    34  O   -0.694269
    35  C   -0.401414
    36  C   -0.403280
    37  C   -0.392816
    38  C   -0.207888
    39  C    0.135758
    40  C   -0.149828
    41  C   -0.197653
    42  C    0.096218
    43  C    0.132955
    44  C   -0.062004
    45  C    0.223170
    46  C   -0.146402
    47  C    0.103248
    48  C   -0.211258
    49  C    0.126625
    50  C    0.027518
    51  C   -0.148775
    52  C   -0.004277
    53  C    0.226016
    54  C   -0.266954
    55  C   -0.004516
    56  C   -0.149023
    57  C   -0.055426
    58  C    0.029751
    59  C   -0.194015
    60  C   -0.148189
    61  C    0.100023
    62  C   -0.191363
    63  C    0.092777
    64  C    0.069384
    65  C   -0.210240
    66  C   -0.266293
    67  P    1.319253
    68  H    0.194163
    69  H    0.120929
    70  H    0.129452
    71  H    0.147063
    72  H    0.119798
    73  H    0.133272
    74  H    0.164549
    75  H    0.106714
    76  H    0.144150
    77  H    0.132209
    78  H    0.136994
    79  H    0.125103
    80  H    0.154002
    81  H    0.140120
    82  H    0.117545
    83  H    0.141621
    84  H    0.125003
    85  H    0.158675
    86  H    0.110521
    87  H    0.090663
    88  H    0.119232
    89  H    0.098516
    90  H    0.138350
    91  H    0.114807
    92  H    0.125348
    93  H    0.137827
    94  H    0.133365
    95  H    0.119629
    96  H    0.079784
    97  H    0.126372
    98  H    0.116402
    99  H    0.115698
   100  H    0.133735
   101  H    0.136650
   102  H    0.134044
 Sum of Mulliken charges =  -0.00000
 Mulliken charges with hydrogens summed into heavy atoms:
               1
     1  O   -0.057653
     2  N   -0.169757
     3  O   -0.557531
     4  O   -0.135014
     5  C    0.105824
     6  N    0.424719
     7  C    0.203065
     8  C    0.676908
     9  C    0.027317
    10  C    0.067508
    11  C    0.632258
    12  C    0.056552
    13  C    0.072609
    14  C    0.038068
    15  C    0.067668
    16  O   -0.398952
    17  O   -0.397496
    28  O   -0.684320
    29  O   -0.625860
    30  C   -0.010815
    31  O   -0.644435
    32  C    0.006629
    33  C   -0.004113
    34  O   -0.694269
    35  C    0.014685
    36  C   -0.003993
    37  C    0.001383
    38  C   -0.117225
    39  C    0.135758
    40  C   -0.030596
    41  C   -0.099138
    42  C    0.096218
    43  C    0.132955
    44  C   -0.062004
    45  C    0.223170
    46  C   -0.146402
    47  C    0.103248
    48  C    0.041899
    49  C    0.126625
    50  C    0.027518
    51  C   -0.023428
    52  C   -0.004277
    53  C    0.226016
    54  C    0.004237
    55  C   -0.004516
    56  C   -0.029394
    57  C   -0.055426
    58  C    0.029751
    59  C   -0.114232
    60  C   -0.021817
    61  C    0.100023
    62  C   -0.074961
    63  C    0.092777
    64  C    0.069384
    65  C    0.039193
    66  C    0.004401
    67  P    1.319253
 APT charges:
               1
     1  O   -0.256684
     2  N   -0.134323
     3  O    0.133030
     4  O    0.081242
     5  C   -1.658245
     6  N   -0.606976
     7  C    0.589029
     8  C   -0.002404
     9  C   -0.479850
    10  C   -0.195691
    11  C   -0.082542
    12  C   -0.605496
    13  C   -0.478500
    14  C   -0.412492
    15  C   -0.470550
    16  O    0.586183
    17  O   -0.211811
    18  H    0.263874
    19  H    0.074586
    20  H    0.414231
    21  H    0.667201
    22  H    0.682678
    23  H    0.310413
    24  H   -0.132470
    25  H    1.321919
    26  H    0.837332
    27  H    0.290660
    28  O   -0.450338
    29  O   -0.230426
    30  C   -1.634515
    31  O   -0.433624
    32  C   -1.198863
    33  C   -1.503427
    34  O   -0.638124
    35  C   -1.220630
    36  C   -1.080235
    37  C   -0.925862
    38  C   -0.500166
    39  C   -0.215652
    40  C   -0.452384
    41  C   -0.404695
    42  C    0.489398
    43  C   -0.210191
    44  C   -0.559036
    45  C   -0.307474
    46  C   -0.050904
    47  C   -0.128079
    48  C   -1.033463
    49  C   -0.401118
    50  C    0.231855
    51  C   -0.442850
    52  C   -0.503180
    53  C   -0.429991
    54  C   -1.603830
    55  C   -0.341743
    56  C   -0.457102
    57  C   -0.424682
    58  C    0.445645
    59  C   -0.444943
    60  C   -0.426279
    61  C   -0.276573
    62  C   -0.477122
    63  C   -0.053924
    64  C    0.274853
    65  C   -0.634239
    66  C   -1.574344
    67  P    0.587005
    68  H    0.125228
    69  H    0.217748
    70  H    0.439824
    71  H    1.071401
    72  H    0.899238
    73  H    0.524964
    74  H   -0.130470
    75  H    0.258141
    76  H    0.922837
    77  H    0.406260
    78  H    0.543484
    79  H    0.752405
    80  H    0.005908
    81  H   -0.022707
    82  H    0.587110
    83  H    0.583115
    84  H    0.729560
    85  H   -0.170948
    86  H    0.420872
    87  H    0.509172
    88  H    1.020413
    89  H    0.810852
    90  H    0.184828
    91  H    0.823537
    92  H    0.812677
    93  H    0.798328
    94  H    0.750069
    95  H    1.107147
    96  H    0.483020
    97  H    0.752350
    98  H    0.685281
    99  H    0.791596
   100  H   -0.046599
   101  H    0.562097
   102  H    0.908169
 Sum of APT charges =  -0.00000
 APT charges with hydrogens summed into heavy atoms:
               1
     1  O    0.007190
     2  N   -0.059737
     3  O    0.133030
     4  O    0.495473
     5  C    0.002047
     6  N   -0.606976
     7  C    0.589029
     8  C   -0.002404
     9  C   -0.479850
    10  C   -0.070463
    11  C   -0.082542
    12  C   -0.737966
    13  C    0.843418
    14  C    0.424840
    15  C   -0.179890
    16  O    0.586183
    17  O   -0.211811
    28  O   -0.450338
    29  O   -0.230426
    30  C    0.094459
    31  O   -0.433624
    32  C    0.094869
    33  C    0.083811
    34  O   -0.638124
    35  C    0.081167
    36  C    0.067283
    37  C    0.053621
    38  C    0.009006
    39  C   -0.215652
    40  C    0.568030
    41  C    0.406157
    42  C    0.489398
    43  C   -0.210191
    44  C   -0.559036
    45  C   -0.307474
    46  C   -0.050904
    47  C   -0.128079
    48  C   -0.025098
    49  C   -0.401118
    50  C    0.231855
    51  C    0.369827
    52  C   -0.503180
    53  C   -0.429991
    54  C   -0.055433
    55  C   -0.341743
    56  C    0.650045
    57  C   -0.424682
    58  C    0.445645
    59  C    0.038076
    60  C    0.326070
    61  C   -0.276573
    62  C    0.208158
    63  C   -0.053924
    64  C    0.274853
    65  C    0.110758
    66  C   -0.104078
    67  P    0.587005
 Electronic spatial extent (au):  <R**2>=          32829.7928
 Charge=              0.0000 electrons
 Dipole moment (field-independent basis, Debye):
    X=             -1.4204    Y=              1.8624    Z=             -0.0206  Tot=              2.3423
 Quadrupole moment (field-independent basis, Debye-Ang):
   XX=           -335.5347   YY=           -315.0201   ZZ=           -352.5018
   XY=             25.2828   XZ=            -10.5191   YZ=              9.1119
 Traceless Quadrupole moment (field-independent basis, Debye-Ang):
   XX=             -1.1825   YY=             19.3321   ZZ=            -18.1496
   XY=             25.2828   XZ=            -10.5191   YZ=              9.1119
 Octapole moment (field-independent basis, Debye-Ang**2):
  XXX=             -6.4171  YYY=             67.5336  ZZZ=            -51.7759  XYY=            -48.2136
  XXY=             30.3289  XXZ=            -66.3615  XZZ=           -119.0810  YZZ=             22.3766
  YYZ=            -52.8748  XYZ=             72.0163
 Hexadecapole moment (field-independent basis, Debye-Ang**3):
 XXXX=         -21042.7122 YYYY=         -13455.9197 ZZZZ=          -9800.8566 XXXY=            587.7663
 XXXZ=           -343.9415 YYYX=            247.9966 YYYZ=           -106.6506 ZZZX=           -439.2701
 ZZZY=            219.5066 XXYY=          -5798.7117 XXZZ=          -5524.7873 YYZZ=          -3912.3374
 XXYZ=            202.0873 YYXZ=             47.5951 ZZXY=            289.4833
 N-N= 9.253702053156D+03 E-N=-2.519896421215D+04  KE= 2.846352494358D+03
  Exact polarizability:       0.000       0.000       0.000       0.000       0.000       0.000
 Approx polarizability:     666.175      83.105     636.433      15.012     -57.409     643.670
 Leave Link  601 at Sun Nov  6 06:34:30 2022, MaxMem=  8053063680 cpu:               7.5 elap:               0.7
 (Enter /project/chenjingdan/g16/l701.exe)
 ... and contract with generalized density number  0.
 Compute integral second derivatives.
 Leave Link  701 at Sun Nov  6 06:34:31 2022, MaxMem=  8053063680 cpu:              11.0 elap:               0.7
 (Enter /project/chenjingdan/g16/l702.exe)
 L702 exits ... SP integral derivatives will be done elsewhere.
 Leave Link  702 at Sun Nov  6 06:34:31 2022, MaxMem=  8053063680 cpu:               0.3 elap:               0.0
 (Enter /project/chenjingdan/g16/l703.exe)
 Integral derivatives from FoFJK, PRISM(SPDF).
 Compute integral second derivatives, UseDBF=F ICtDFT=           0.
 Calling FoFJK, ICntrl=    100127 FMM=F ISym2X=0 I1Cent= 0 IOpClX= 0 NMat=1 NMatS=1 NMatT=0.
 FoFJK:  IHMeth= 1 ICntrl=  100127 DoSepK=F KAlg= 0 I1Cent=           0 FoldK=F
 IRaf=         0 NMat=       1 IRICut=       1 DoRegI=T DoRafI=F ISym2E= 0 IDoP0=0 IntGTp=1.
 FoFCou: FMM=F IPFlag=           0 FMFlag=      100000 FMFlg1=        2800
         NFxFlg=           0 DoJE=F BraDBF=F KetDBF=F FulRan=T
         wScrn=  0.000000 ICntrl=    100127 IOpCl=  0 I1Cent=           0 NGrid=           0
         NMat0=    1 NMatS0=      1 NMatT0=    0 NMatD0=    1 NMtDS0=    0 NMtDT0=    0
 Symmetry not used in FoFCou.
 Leave Link  703 at Sun Nov  6 07:02:00 2022, MaxMem=  8053063680 cpu:           26387.3 elap:            1649.3
 (Enter /project/chenjingdan/g16/l716.exe)
 Dipole        =-5.58822435D-01 7.32740274D-01-8.08766916D-03
 Polarizability= 0.00000000D+00 0.00000000D+00 0.00000000D+00
                 0.00000000D+00 0.00000000D+00 0.00000000D+00
 -------------------------------------------------------------------
 Center     Atomic                   Forces (Hartrees/Bohr)
 Number     Number              X              Y              Z
 -------------------------------------------------------------------
      1        8          -0.000000420   -0.000001550   -0.000002050
      2        7          -0.000000797   -0.000000105    0.000000539
      3        8           0.000000455   -0.000000293    0.000001016
      4        8          -0.000000046    0.000001311   -0.000001810
      5        6          -0.000000922    0.000000223   -0.000000476
      6        7          -0.000001078    0.000001535    0.000000978
      7        6          -0.000000351    0.000002011    0.000000545
      8        6           0.000000055    0.000000998   -0.000000533
      9        6           0.000000679    0.000001077    0.000000680
     10        6          -0.000001588    0.000000802    0.000000483
     11        6          -0.000002001    0.000000727    0.000001447
     12        6          -0.000000546    0.000001186    0.000000140
     13        6          -0.000000523    0.000001657    0.000000837
     14        6          -0.000001282    0.000001699    0.000000478
     15        6          -0.000000059    0.000000604    0.000000850
     16        8           0.000000772    0.000002629    0.000001317
     17        8          -0.000000189    0.000001730    0.000000850
     18        1           0.000001404    0.000002085    0.000004032
     19        1           0.000000063    0.000000334   -0.000001350
     20        1          -0.000000570    0.000001233    0.000000503
     21        1          -0.000001077    0.000000657   -0.000000344
     22        1          -0.000001063    0.000000179   -0.000000551
     23        1          -0.000001166    0.000000357   -0.000000376
     24        1          -0.000000296    0.000000473    0.000000333
     25        1          -0.000000443    0.000002069    0.000000962
     26        1          -0.000000432    0.000001716    0.000000473
     27        1           0.000000139    0.000001446    0.000000312
     28        8          -0.000000463   -0.000000898   -0.000001500
     29        8          -0.000000078   -0.000000592    0.000000167
     30        6          -0.000001880   -0.000000352   -0.000000182
     31        8           0.000000496   -0.000000103    0.000000630
     32        6          -0.000000429   -0.000000312   -0.000001307
     33        6           0.000000295    0.000000294    0.000000746
[...]
 Alpha virt. eigenvalues --    0.84017   0.84525   0.84855   0.85364   0.85642
 Alpha virt. eigenvalues --    0.85862   0.86180   0.86338   0.86705   0.87049
 Alpha virt. eigenvalues --    0.87285   0.87659   0.87871   0.88210   0.88658
 Alpha virt. eigenvalues --    0.88808   0.89153   0.89281   0.89464   0.89647
 Alpha virt. eigenvalues --    0.89755   0.90273   0.90627   0.90972   0.91547
 Alpha virt. eigenvalues --    0.91923   0.92358   0.92467   0.92665   0.92970
 Alpha virt. eigenvalues --    0.93285   0.93319   0.93364   0.93679   0.94279
 Alpha virt. eigenvalues --    0.94530   0.94606   0.95215   0.95241   0.95624
 Alpha virt. eigenvalues --    0.95676   0.96002   0.96342   0.96756   0.97050
 Alpha virt. eigenvalues --    0.97255   0.97522   0.97978   0.98103   0.98527
 Alpha virt. eigenvalues --    0.98663   0.98764   0.99226   0.99502   0.99784
 Alpha virt. eigenvalues --    1.00177   1.00718   1.00735   1.01289   1.01727
 Alpha virt. eigenvalues --    1.02119   1.02330   1.02529   1.02869   1.03359
 Alpha virt. eigenvalues --    1.03400   1.03825   1.04396   1.05123   1.05398
 Alpha virt. eigenvalues --    1.05645   1.05984   1.06619   1.06847   1.07252
 Alpha virt. eigenvalues --    1.07578   1.07881   1.08384   1.08946   1.09434
 Alpha virt. eigenvalues --    1.09714   1.10143   1.10272   1.10681   1.10826
 Alpha virt. eigenvalues --    1.11658   1.11741   1.12211   1.12583   1.13110
 Alpha virt. eigenvalues --    1.13349   1.13914   1.14570   1.15142   1.15294
 Alpha virt. eigenvalues --    1.15966   1.16250   1.16824   1.17970   1.18481
 Alpha virt. eigenvalues --    1.19081   1.19359   1.19535   1.20220   1.20622
 Alpha virt. eigenvalues --    1.21322   1.22132   1.22262   1.22815   1.22930
 Alpha virt. eigenvalues --    1.23406   1.23979   1.24293   1.24523   1.25363
 Alpha virt. eigenvalues --    1.25545   1.26032   1.26423   1.27193   1.27542
 Alpha virt. eigenvalues --    1.27733   1.28234   1.29163   1.29353   1.29993
 Alpha virt. eigenvalues --    1.30288   1.30405   1.30813   1.31382   1.31653
 Alpha virt. eigenvalues --    1.32098   1.32564   1.33459   1.33671   1.33998
 Alpha virt. eigenvalues --    1.34719   1.35143   1.36080   1.36529   1.37064
 Alpha virt. eigenvalues --    1.37277   1.37455   1.38076   1.38884   1.39104
 Alpha virt. eigenvalues --    1.39389   1.39646   1.40127   1.40201   1.40746
 Alpha virt. eigenvalues --    1.41208   1.41338   1.41520   1.42497   1.42834
 Alpha virt. eigenvalues --    1.43258   1.43346   1.43650   1.44122   1.44622
 Alpha virt. eigenvalues --    1.45143   1.45486   1.45836   1.46024   1.46627
 Alpha virt. eigenvalues --    1.46887   1.47299   1.47703   1.47906   1.48360
 Alpha virt. eigenvalues --    1.49048   1.49533   1.50087   1.51255   1.51833
 Alpha virt. eigenvalues --    1.52085   1.53134   1.53560   1.54001   1.54638
 Alpha virt. eigenvalues --    1.55202   1.55428   1.56417   1.57128   1.58867
 Alpha virt. eigenvalues --    1.59236   1.60273   1.60876   1.61654   1.62518
 Alpha virt. eigenvalues --    1.62824   1.64037   1.64374   1.65026   1.66707
 Alpha virt. eigenvalues --    1.66862   1.67211   1.68894   1.69519   1.70128
 Alpha virt. eigenvalues --    1.70774   1.71392   1.71726   1.72634   1.73046
 Alpha virt. eigenvalues --    1.73224   1.73718   1.73804   1.74110   1.74549
 Alpha virt. eigenvalues --    1.74808   1.75822   1.76482   1.76681   1.77198
 Alpha virt. eigenvalues --    1.77534   1.77614   1.78408   1.78944   1.79104
 Alpha virt. eigenvalues --    1.79599   1.79844   1.80121   1.80653   1.80958
 Alpha virt. eigenvalues --    1.81304   1.81726   1.81964   1.82151   1.82541
 Alpha virt. eigenvalues --    1.82752   1.83285   1.83365   1.83793   1.83996
 Alpha virt. eigenvalues --    1.84434   1.84694   1.85086   1.85097   1.85761
 Alpha virt. eigenvalues --    1.85811   1.85982   1.86438   1.86829   1.86995
 Alpha virt. eigenvalues --    1.87332   1.87480   1.87940   1.88417   1.88946
 Alpha virt. eigenvalues --    1.88969   1.89808   1.89884   1.90397   1.90519
 Alpha virt. eigenvalues --    1.90684   1.90820   1.91284   1.91577   1.92009
 Alpha virt. eigenvalues --    1.92424   1.92772   1.93089   1.93697   1.93827
 Alpha virt. eigenvalues --    1.93930   1.94280   1.95345   1.95496   1.95693
 Alpha virt. eigenvalues --    1.96112   1.96762   1.97196   1.97507   1.98158
 Alpha virt. eigenvalues --    1.98459   1.98694   1.99006   1.99272   2.00291
 Alpha virt. eigenvalues --    2.00522   2.00908   2.01049   2.01466   2.01799
 Alpha virt. eigenvalues --    2.02170   2.02389   2.02768   2.03881   2.04240
 Alpha virt. eigenvalues --    2.04442   2.04552   2.04950   2.05427   2.06214
 Alpha virt. eigenvalues --    2.06370   2.06700   2.07327   2.07674   2.07920
 Alpha virt. eigenvalues --    2.08242   2.08656   2.08946   2.09068   2.09248
 Alpha virt. eigenvalues --    2.09370   2.09868   2.10253   2.10441   2.10997
 Alpha virt. eigenvalues --    2.11582   2.11709   2.12054   2.12416   2.12485
 Alpha virt. eigenvalues --    2.13145   2.13283   2.13809   2.13869   2.14068
 Alpha virt. eigenvalues --    2.14261   2.14346   2.14676   2.15032   2.15291
 Alpha virt. eigenvalues --    2.15852   2.16032   2.16196   2.16407   2.16599
 Alpha virt. eigenvalues --    2.16918   2.17387   2.17859   2.17944   2.18384
 Alpha virt. eigenvalues --    2.18631   2.18745   2.19185   2.19586   2.19828
 Alpha virt. eigenvalues --    2.20159   2.20723   2.21054   2.21848   2.21929
 Alpha virt. eigenvalues --    2.22420   2.22566   2.23714   2.24128   2.24746
 Alpha virt. eigenvalues --    2.25057   2.25186   2.25656   2.26233   2.26335
 Alpha virt. eigenvalues --    2.27227   2.27431   2.27667   2.27866   2.28507
 Alpha virt. eigenvalues --    2.28888   2.29153   2.29972   2.30232   2.30875
 Alpha virt. eigenvalues --    2.31263   2.31392   2.31776   2.31965   2.32444
 Alpha virt. eigenvalues --    2.32668   2.33254   2.34974   2.35140   2.35493
 Alpha virt. eigenvalues --    2.35818   2.37045   2.37466   2.38418   2.39258
 Alpha virt. eigenvalues --    2.40163   2.40503   2.40728   2.41007   2.41398
 Alpha virt. eigenvalues --    2.41438   2.41747   2.42041   2.42147   2.42378
 Alpha virt. eigenvalues --    2.42553   2.43076   2.43304   2.43652   2.43863
 Alpha virt. eigenvalues --    2.44277   2.44496   2.45531   2.45802   2.46412
 Alpha virt. eigenvalues --    2.46899   2.47146   2.47581   2.47943   2.48298
 Alpha virt. eigenvalues --    2.48526   2.48778   2.49286   2.49818   2.50462
 Alpha virt. eigenvalues --    2.50844   2.51485   2.51720   2.52503   2.52771
 Alpha virt. eigenvalues --    2.53286   2.53953   2.54197   2.55624   2.55959
 Alpha virt. eigenvalues --    2.56212   2.56826   2.57434   2.57774   2.58313
 Alpha virt. eigenvalues --    2.58927   2.58951   2.59408   2.59622   2.59851
 Alpha virt. eigenvalues --    2.60223   2.60435   2.60881   2.61765   2.61916
 Alpha virt. eigenvalues --    2.62140   2.62617   2.62964   2.63819   2.64116
 Alpha virt. eigenvalues --    2.64346   2.65204   2.65469   2.65695   2.65913
 Alpha virt. eigenvalues --    2.66436   2.66830   2.67015   2.67338   2.67773
 Alpha virt. eigenvalues --    2.68194   2.68485   2.68876   2.69187   2.69567
 Alpha virt. eigenvalues --    2.69787   2.69982   2.70466   2.70972   2.71270
 Alpha virt. eigenvalues --    2.71706   2.72014   2.72264   2.72385   2.73082
 Alpha virt. eigenvalues --    2.73301   2.73879   2.74088   2.74722   2.74889
 Alpha virt. eigenvalues --    2.75789   2.76334   2.77450   2.77787   2.78512
 Alpha virt. eigenvalues --    2.79038   2.79547   2.80009   2.80449   2.80991
 Alpha virt. eigenvalues --    2.81102   2.81731   2.82019   2.82107   2.82448
 Alpha virt. eigenvalues --    2.82716   2.83099   2.83374   2.83968   2.84382
 Alpha virt. eigenvalues --    2.85038   2.85113   2.85649   2.86837   2.87091
 Alpha virt. eigenvalues --    2.87589   2.87899   2.87905   2.88575   2.88789
 Alpha virt. eigenvalues --    2.89149   2.89177   2.89736   2.90335   2.90538
 Alpha virt. eigenvalues --    2.90905   2.91358   2.92126   2.92466   2.92569
 Alpha virt. eigenvalues --    2.93064   2.93712   2.94373   2.94772   2.95266
 Alpha virt. eigenvalues --    2.98024   2.99289   3.00204   3.01327   3.02192
 Alpha virt. eigenvalues --    3.02632   3.03006   3.03069   3.04592   3.04970
 Alpha virt. eigenvalues --    3.07418   3.07847   3.08946   3.09384   3.09557
 Alpha virt. eigenvalues --    3.10427   3.10925   3.11932   3.13628   3.14916
 Alpha virt. eigenvalues --    3.17033   3.17437   3.18115   3.18349   3.18894
 Alpha virt. eigenvalues --    3.20138   3.21260   3.21705   3.22170   3.22463
 Alpha virt. eigenvalues --    3.22591   3.23714   3.24056   3.24876   3.25105
 Alpha virt. eigenvalues --    3.26149   3.27107   3.27498   3.27888   3.29819
 Alpha virt. eigenvalues --    3.29983   3.31076   3.31174   3.32201   3.32376
 Alpha virt. eigenvalues --    3.34142   3.34676   3.35260   3.37486   3.38195
 Alpha virt. eigenvalues --    3.40694   3.41710   3.42467   3.42621   3.43818
 Alpha virt. eigenvalues --    3.44762   3.44902   3.45048   3.45276   3.45964
 Alpha virt. eigenvalues --    3.46055   3.46280   3.46719   3.46880   3.47367
 Alpha virt. eigenvalues --    3.47794   3.48205   3.49360   3.50220   3.51430
 Alpha virt. eigenvalues --    3.51894   3.56557   3.59372   3.62956   3.68579
 Alpha virt. eigenvalues --    3.69076   3.69349   3.74399   3.74885   3.76792
 Alpha virt. eigenvalues --    3.80215   3.94492   4.03618   4.05647   4.11716
 Alpha virt. eigenvalues --    4.12565   4.16159   4.17477   4.17657   4.18089
 Alpha virt. eigenvalues --    4.18337   4.19000   4.20502   4.21538   4.23261
 Alpha virt. eigenvalues --    4.24120   4.25268   4.26307   4.26973   4.27859
 Alpha virt. eigenvalues --    4.28812   4.31737   4.35563   4.36240   4.39257
 Alpha virt. eigenvalues --    4.40584   4.41322   4.42359   4.43215   4.44569
 Alpha virt. eigenvalues --    4.45578   4.47118   4.48798   4.48917   4.50403
 Alpha virt. eigenvalues --    4.51200   4.52618   4.54376   4.55254   4.57004
 Alpha virt. eigenvalues --    4.59007   4.61793   4.62330   4.63164   4.63795
 Alpha virt. eigenvalues --    4.64934   4.69708   4.73205   4.75758   4.84209
 Alpha virt. eigenvalues --    4.84817   4.86394   4.88269   4.91311   4.97273
 Alpha virt. eigenvalues --    5.00572
          Condensed to atoms (all electrons):
 Mulliken charges:
               1
     1  O   -0.528894
     2  N   -0.568713
     3  O   -0.550698
     4  O   -0.567387
     5  C   -0.346850
     6  N    0.424984
     7  C    0.203888
     8  C    0.677193
     9  C    0.027534
    10  C   -0.128995
    11  C    0.631171
    12  C   -0.112385
    13  C   -0.115693
    14  C   -0.136434
    15  C   -0.124479
    16  O   -0.398665
    17  O   -0.396371
    18  H    0.456342
    19  H    0.426084
    20  H    0.435658
    21  H    0.141717
    22  H    0.156067
    23  H    0.155043
    24  H    0.180565
    25  H    0.188824
    26  H    0.174966
    27  H    0.192191
    28  O   -0.687173
    29  O   -0.627687
    30  C   -0.408036
    31  O   -0.648269
    32  C   -0.410968
    33  C   -0.388461
    34  O   -0.710254
    35  C   -0.403472
    36  C   -0.401672
    37  C   -0.392815
    38  C   -0.208914
    39  C    0.135549
    40  C   -0.150202
    41  C   -0.197572
    42  C    0.095666
    43  C    0.132394
    44  C   -0.061269
    45  C    0.225145
    46  C   -0.146014
    47  C    0.103383
    48  C   -0.211308
    49  C    0.126376
    50  C    0.027313
    51  C   -0.148946
    52  C   -0.003793
    53  C    0.227297
    54  C   -0.266943
    55  C   -0.005241
    56  C   -0.149474
    57  C   -0.054054
    58  C    0.030009
    59  C   -0.194756
    60  C   -0.149279
    61  C    0.099715
    62  C   -0.195699
    63  C    0.099860
    64  C    0.067843
    65  C   -0.210227
    66  C   -0.266227
    67  P    1.316036
    68  H    0.193583
    69  H    0.119979
    70  H    0.129494
    71  H    0.147256
    72  H    0.119401
    73  H    0.133331
    74  H    0.165162
    75  H    0.104632
    76  H    0.145782
    77  H    0.132179
    78  H    0.136327
    79  H    0.124803
    80  H    0.155991
    81  H    0.139648
    82  H    0.116243
    83  H    0.141899
    84  H    0.125155
    85  H    0.159169
    86  H    0.109824
    87  H    0.090130
    88  H    0.118627
    89  H    0.098430
    90  H    0.138220
    91  H    0.114469
    92  H    0.124726
    93  H    0.137462
    94  H    0.133056
    95  H    0.119101
    96  H    0.079285
    97  H    0.125790
    98  H    0.117558
    99  H    0.115338
   100  H    0.133475
   101  H    0.136216
   102  H    0.133735
 Sum of Mulliken charges =  -0.00000
 Mulliken charges with hydrogens summed into heavy atoms:
               1
     1  O   -0.072552
     2  N   -0.142629
     3  O   -0.550698
     4  O   -0.131729
     5  C    0.105977
     6  N    0.424984
     7  C    0.203888
     8  C    0.677193
     9  C    0.027534
    10  C    0.064587
    11  C    0.631171
    12  C    0.068180
    13  C    0.073131
    14  C    0.038532
    15  C    0.067712
    16  O   -0.398665
    17  O   -0.396371
    28  O   -0.687173
    29  O   -0.627687
    30  C   -0.011306
    31  O   -0.648269
    32  C    0.006926
    33  C   -0.005867
    34  O   -0.710254
    35  C    0.013649
    36  C   -0.003882
    37  C    0.001333
    38  C   -0.118783
    39  C    0.135549
    40  C   -0.031575
    41  C   -0.099142
    42  C    0.095666
    43  C    0.132394
    44  C   -0.061269
    45  C    0.225145
    46  C   -0.146014
    47  C    0.103383
    48  C    0.041381
    49  C    0.126376
    50  C    0.027313
    51  C   -0.024220
    52  C   -0.003793
    53  C    0.227297
    54  C    0.003575
    55  C   -0.005241
    56  C   -0.030373
    57  C   -0.054054
    58  C    0.030009
    59  C   -0.115472
    60  C   -0.023489
    61  C    0.099715
    62  C   -0.078141
    63  C    0.099860
    64  C    0.067843
    65  C    0.038586
    66  C    0.003724
    67  P    1.316036
 APT charges:
               1
     1  O   -0.075536
     2  N   -0.207514
     3  O    0.236843
     4  O   -0.012410
     5  C   -1.650092
     6  N   -0.599740
     7  C    0.575287
     8  C   -0.158133
     9  C   -0.474164
    10  C   -0.191865
    11  C    0.010708
    12  C   -0.604412
    13  C   -0.477735
    14  C   -0.428332
    15  C   -0.465869
    16  O    0.571667
    17  O   -0.205402
    18  H    0.070423
    19  H    0.135965
    20  H    0.489698
    21  H    0.658468
    22  H    0.705790
    23  H    0.285991
    24  H   -0.111567
    25  H    1.305527
    26  H    0.836613
    27  H    0.298074
    28  O   -0.434039
    29  O   -0.235317
    30  C   -1.633843
    31  O   -0.436582
    32  C   -1.197364
    33  C   -1.507006
    34  O   -0.634232
    35  C   -1.220853
    36  C   -1.081462
    37  C   -0.928141
    38  C   -0.506985
    39  C   -0.215413
    40  C   -0.453660
    41  C   -0.399147
    42  C    0.487972
    43  C   -0.210222
    44  C   -0.557476
    45  C   -0.305673
    46  C   -0.051010
    47  C   -0.132553
    48  C   -1.029952
    49  C   -0.395521
    50  C    0.233136
    51  C   -0.440880
    52  C   -0.498121
    53  C   -0.429612
    54  C   -1.603662
    55  C   -0.343383
    56  C   -0.458177
    57  C   -0.416742
    58  C    0.445792
    59  C   -0.440323
    60  C   -0.426502
    61  C   -0.273598
    62  C   -0.474518
    63  C   -0.059672
    64  C    0.265361
    65  C   -0.635798
    66  C   -1.572825
    67  P    0.579324
    68  H    0.134255
    69  H    0.235448
    70  H    0.414997
    71  H    1.077074
    72  H    0.896944
    73  H    0.524919
    74  H   -0.129663
    75  H    0.261530
    76  H    0.926131
    77  H    0.399406
    78  H    0.551110
    79  H    0.745971
    80  H    0.004381
    81  H   -0.021818
    82  H    0.580196
    83  H    0.590647
    84  H    0.730656
    85  H   -0.169768
    86  H    0.420399
    87  H    0.509346
    88  H    1.019166
    89  H    0.808693
    90  H    0.183338
    91  H    0.822026
    92  H    0.811331
    93  H    0.797322
    94  H    0.749674
    95  H    1.106153
    96  H    0.482283
    97  H    0.752285
    98  H    0.681426
    99  H    0.791188
   100  H   -0.045505
   101  H    0.562613
   102  H    0.906243
 Sum of APT charges =  -0.00000
 APT charges with hydrogens summed into heavy atoms:
               1
     1  O   -0.005113
     2  N   -0.071550
     3  O    0.236843
     4  O    0.477288
     5  C    0.000157
     6  N   -0.599740
     7  C    0.575287
     8  C   -0.158133
     9  C   -0.474164
    10  C   -0.057610
    11  C    0.010708
    12  C   -0.715978
    13  C    0.827792
    14  C    0.408281
    15  C   -0.167794
    16  O    0.571667
    17  O   -0.205402
    28  O   -0.434039
    29  O   -0.235317
    30  C    0.093676
    31  O   -0.436582
    32  C    0.094835
    33  C    0.080060
    34  O   -0.634232
    35  C    0.080609
    36  C    0.067563
    37  C    0.053146
    38  C    0.002361
    39  C   -0.215413
    40  C    0.565506
    41  C    0.409547
    42  C    0.487972
    43  C   -0.210222
    44  C   -0.557476
    45  C   -0.305673
    46  C   -0.051010
    47  C   -0.132553
    48  C   -0.024588
    49  C   -0.395521
    50  C    0.233136
    51  C    0.370451
    52  C   -0.498121
    53  C   -0.429612
    54  C   -0.056667
    55  C   -0.343383
    56  C    0.647976
    57  C   -0.416742
    58  C    0.445792
    59  C    0.041960
    60  C    0.325782
    61  C   -0.273598
    62  C    0.206908
    63  C   -0.059672
    64  C    0.265361
    65  C    0.109884
    66  C   -0.103969
    67  P    0.579324
 Electronic spatial extent (au):  <R**2>=          32545.8123
 Charge=              0.0000 electrons
 Dipole moment (field-independent basis, Debye):
    X=             -1.0247    Y=              2.0168    Z=              0.1522  Tot=              2.2673
 Quadrupole moment (field-independent basis, Debye-Ang):
   XX=           -333.8946   YY=           -315.1093   ZZ=           -353.5174
   XY=             25.1700   XZ=             -9.2795   YZ=              9.4322
 Traceless Quadrupole moment (field-independent basis, Debye-Ang):
   XX=              0.2792   YY=             19.0645   ZZ=            -19.3436
   XY=             25.1700   XZ=             -9.2795   YZ=              9.4322
 Octapole moment (field-independent basis, Debye-Ang**2):
  XXX=             28.7715  YYY=             54.7983  ZZZ=            -33.0059  XYY=            -38.0697
  XXY=             26.2738  XXZ=            -57.1515  XZZ=           -111.6584  YZZ=             13.4352
  YYZ=            -46.3605  XYZ=             72.5148
 Hexadecapole moment (field-independent basis, Debye-Ang**3):
 XXXX=         -20521.7103 YYYY=         -13499.8141 ZZZZ=          -9862.8105 XXXY=            549.4352
 XXXZ=           -249.9405 YYYX=            212.4118 YYYZ=            -73.7146 ZZZX=           -345.2138
 ZZZY=            263.7942 XXYY=          -5716.6381 XXZZ=          -5438.0955 YYZZ=          -3938.2620
 XXYZ=            201.0303 YYXZ=             82.9959 ZZXY=            254.6546
 N-N= 9.272709649102D+03 E-N=-2.523700306629D+04  KE= 2.846346606912D+03
  Exact polarizability:       0.000       0.000       0.000       0.000       0.000       0.000
 Approx polarizability:     666.788      83.814     637.545      16.323     -58.643     643.731
 Leave Link  601 at Sun Nov  6 14:13:18 2022, MaxMem=  8053063680 cpu:               8.2 elap:               0.7
 (Enter /project/chenjingdan/g16/l9999.exe)

 This type of calculation cannot be archived.


 THE NUMBERS ARE MEANINGLESS, BUT THE TRENDS ARE IMPORTANT.
     -- LARRY BURGGRAF
 Job cpu time:       6 days 14 hours 57 minutes 54.0 seconds.
 Elapsed time:       0 days  9 hours 57 minutes 29.1 seconds.
 File lengths (MBytes):  RWF=  11523 Int=      0 D2E=      0 Chk=     99 Scr=      1
 Normal termination of Gaussian 16 at Sun Nov  6 14:13:20 2022.
