 Entering Gaussian System, Link 0=g16
 Initial command:
 /project/chenjingdan/g16/l1.exe "/scratch/chenjingdan/scratch/Gau-110889.inp" -scrdir="/scratch/chenjingdan/scratch/"
 Entering Link 1 = /project/chenjingdan/g16/l1.exe PID=    110890.
  
 Copyright (c) 1988-2019, Gaussian, Inc.  All Rights Reserved.
  
 This is part of the Gaussian(R) 16 program.  It is based on
 the Gaussian(R) 09 system (copyright 2009, Gaussian, Inc.),
 the Gaussian(R) 03 system (copyright 2003, Gaussian, Inc.),
 the Gaussian(R) 98 system (copyright 1998, Gaussian, Inc.),
 the Gaussian(R) 94 system (copyright 1995, Gaussian, Inc.),
 the Gaussian 92(TM) system (copyright 1992, Gaussian, Inc.),
 the Gaussian 90(TM) system (copyright 1990, Gaussian, Inc.),
 the Gaussian 88(TM) system (copyright 1988, Gaussian, Inc.),
 the Gaussian 86(TM) system (copyright 1986, Carnegie Mellon
 University), and the Gaussian 82(TM) system (copyright 1983,
 Carnegie Mellon University). Gaussian is a federally registered
 trademark of Gaussian, Inc.
  
 This software contains proprietary and confidential information,
 including trade secrets, belonging to Gaussian, Inc.
  
 This software is provided under written license and may be
 used, copied, transmitted, or stored only in accord with that
 written license.
  
 The following legend is applicable only to US Government
 contracts under FAR:
  
                    RESTRICTED RIGHTS LEGEND
  
 Use, reproduction and disclosure by the US Government is
 subject to restrictions as set forth in subparagraphs (a)
 and (c) of the Commercial Computer Software - Restricted
 Rights clause in FAR 52.227-19.
  
 Gaussian, Inc.
 340 Quinnipiac St., Bldg. 40, Wallingford CT 06492
  
  
 ---------------------------------------------------------------
 Warning -- This program may not be used in any manner that
 competes with the business of Gaussian, Inc. or will provide
 assistance to any competitor of Gaussian, Inc.  The licensee
 of this program is prohibited from giving any competitor of
 Gaussian, Inc. access to this program.  By using this program,
 the user acknowledges that Gaussian, Inc. is engaged in the
 business of creating and licensing software in the field of
 computational chemistry and represents and warrants to the
 licensee that it is not a competitor of Gaussian, Inc. and that
 it will not use this program in any manner prohibited above.
 ---------------------------------------------------------------
  

 Cite this work as:
 Gaussian 16, Revision C.01,
 M. J. Frisch, G. W. Trucks, H. B. Schlegel, G. E. Scuseria, 
 M. A. Robb, J. R. Cheeseman, G. Scalmani, V. Barone, 
 G. A. Petersson, H. Nakatsuji, X. Li, M. Caricato, A. V. Marenich, 
 J. Bloino, B. G. Janesko, R. Gomperts, B. Mennucci, H. P. Hratchian, 
 J. V. Ortiz, A. F. Izmaylov, J. L. Sonnenberg, D. Williams-Young, 
 F. Ding, F. Lipparini, F. Egidi, J. Goings, B. Peng, A. Petrone, 
 T. Henderson, D. Ranasinghe, V. G. Zakrzewski, J. Gao, N. Rega, 
 G. Zheng, W. Liang, M. Hada, M. Ehara, K. Toyota, R. Fukuda, 
 J. Hasegawa, M. Ishida, T. Nakajima, Y. Honda, O. Kitao, H. Nakai, 
 T. Vreven, K. Throssell, J. A. Montgomery, Jr., J. E. Peralta, 
 F. Ogliaro, M. J. Bearpark, J. J. Heyd, E. N. Brothers, K. N. Kudin, 
 V. N. Staroverov, T. A. Keith, R. Kobayashi, J. Normand, 
 K. Raghavachari, A. P. Rendell, J. C. Burant, S. S. Iyengar, 
 J. Tomasi, M. Cossi, J. M. Millam, M. Klene, C. Adamo, R. Cammi, 
 J. W. Ochterski, R. L. Martin, K. Morokuma, O. Farkas, 
 J. B. Foresman, and D. J. Fox, Gaussian, Inc., Wallingford CT, 2019.
 
 ******************************************
 Gaussian 16:  ES64L-G16RevC.01  3-Jul-2019
                29-Oct-2022 
 ******************************************
 %nprocshared=16
 Will use up to   16 processors via shared memory.
 %mem=60GB
 %chk=ts2_invS_t1_irc.chk
 -------------------------------------------------
 #p irc=(calcfc,maxpoints=30,LQA) 6-31g(d,p) m062x
 -------------------------------------------------
 1/10=4,18=10,26=3,38=1,42=30,44=3,45=2,172=1/1,23;
 2/12=2,17=6,18=5,29=1,40=1/2;
 3/5=1,6=6,7=101,11=2,25=1,30=1,71=2,74=-55,140=1/1,2,3;
 4//1;
 5/5=2,38=5/2;
 8/6=4,10=90,11=11/1;
 11/6=1,8=1,9=11,15=111,16=1/1,2,10;
 10/6=1,13=1/2;
 6/7=2,8=2,9=2,10=2,28=1/1;
 7/10=1,25=1/1,2,3,16;
 1/10=4,18=10,26=3,42=30,44=3,45=2/23(2);
 2/29=1/2;
 99/5=20/99;
 2/29=1/2;
 3/5=1,6=6,7=101,11=2,25=1,30=1,71=2,74=-55,140=1/1,2,3;
 4/5=5,16=3,69=1/1;
 5/5=2,38=5/2;
 8/6=4,10=90,11=11/1;
 11/6=1,8=1,9=11,15=111,16=1/1,2,10;
 10/6=1,13=1/2;
 7/10=1,25=1/1,2,3,16;
 1/18=10,26=3,42=30,44=3,45=2/23(-8);
 2/29=1/2;
 6/7=2,8=2,9=2,10=2,19=2,28=1/1;
 99/5=20,9=1/99;
 Leave Link    1 at Sat Oct 29 10:49:03 2022, MaxMem=  8053063680 cpu:               2.2 elap:               0.2
 (Enter /project/chenjingdan/g16/l101.exe)
 -----
 TITLE
 -----
 Symbolic Z-matrix:
 Charge =  0 Multiplicity = 1
 O                     0.77058   3.34515  -3.89356 
 N                     1.70039   2.15052  -0.56314 
 O                     2.68401   2.3809   -3.32037 
 O                     3.88879   2.24404  -1.23504 
 C                    -0.14339   3.62613  -1.27291 
 N                     4.93119  -0.83722   4.20968 
 C                     4.40512  -0.10798   3.04048 
 C                     1.55252   2.7842   -2.96981 
 C                     3.42976   1.23243   0.85256 
 C                     0.91571   2.6168   -1.69606 
 C                     2.97366   1.91048  -0.38866 
 C                     2.5677    0.43745   1.61719 
 C                     5.28059   0.67281   2.29837 
 C                     4.78134   1.34444   1.19128 
 C                     3.06011  -0.23887   2.72575 
 O                     6.11022  -0.69491   4.47381 
 O                     4.15258  -1.53373   4.83206 
 H                     1.25966   3.30906  -4.72926 
 H                     1.05653   1.84028   0.18362 
 H                     3.45971   2.32664  -2.21478 
 H                     0.29847   4.58755  -0.98928 
 H                    -0.84296   3.78835  -2.09366 
 H                    -0.70945   3.23903  -0.42024 
 H                     1.52324   0.30546   1.34714 
 H                     6.32111   0.73789   2.58991 
 H                     5.43528   1.94787   0.57261 
 H                     2.42473  -0.87321   3.33079 
 O                    -0.47075   0.4342   -1.79055 
 O                    -2.53191  -0.00884  -0.51285 
 C                    -2.85058   6.21861   0.08131 
 O                    -0.44517  -1.33452   0.09844 
 C                    -5.03228   1.78937  -0.88057 
 C                     5.74144  -0.46255  -1.50747 
 O                    -0.48911   1.07832   0.72137 
 C                     1.35389  -0.91264  -3.90773 
 C                     2.04623  -3.12292   0.63139 
 C                    -2.0108    2.3361    3.16896 
 C                    -2.51847   4.22999   1.60172 
 C                    -3.40367  -1.70592   0.92261 
 C                    -4.5207   -1.09911   2.98176 
 C                    -3.92332   3.96944  -0.31571 
 C                    -3.11078   4.78522   0.46846 
 C                    -1.87922  -3.00338  -0.84587 
 C                    -3.51963   2.08465   1.13817 
 C                    -3.23248  -0.36129   0.6338 
 C                    -3.05654  -2.94218   0.11251 
 C                    -4.1385    2.62746  -0.00108 
 C                    -4.21118  -3.35684  -0.84299 
 C                    -2.70579   2.89297   1.95185 
 C                    -4.01524  -2.06884   2.12552 
 C                    -4.38622   0.24582   2.64068 
 C                     0.36631  -2.66961  -1.72673 
 C                    -0.65348  -2.35582  -0.82019 
 C                    -3.57456  -4.39175  -1.79071 
 C                    -3.72078   0.64475   1.47659 
 C                    -1.15975  -4.23937  -2.79915 
 C                     1.71193  -2.02647  -1.64015 
 C                    -2.14131  -3.91634  -1.8717 
 C                     3.82784  -1.76997  -0.49948 
 C                     0.09217  -3.63356  -2.70233 
 C                     2.53183  -2.28736  -0.5264 
 C                     3.48378  -0.69932  -2.60794 
 C                     2.1901   -1.217    -2.68841 
 C                     4.32769  -0.98334  -1.53364 
 C                    -2.91765  -3.98845   1.25624 
 C                    -3.97612  -3.57075   2.29474 
 P                    -0.93036   0.14771  -0.35898 
 H                     0.17571   1.46171  -1.90372 
 H                    -1.99701   6.28808  -0.60234 
 H                    -3.71372   6.65532  -0.42726 
 H                    -2.6222    6.83137   0.95672 
 H                    -5.61966   2.42426  -1.54748 
 H                    -5.72116   1.18411  -0.28467 
 H                    -4.43957   1.10467  -1.49491 
 H                     5.76071   0.61867  -1.67283 
 H                     6.22066  -0.67286  -0.54782 
 H                     6.34278  -0.93036  -2.29343 
 H                     1.69546   0.01981  -4.36663 
 H                     1.45187  -1.70363  -4.65949 
 H                     0.29829  -0.81399  -3.65207 
 H                     1.28527  -2.58468   1.20691 
 H                     2.87263  -3.36742   1.30293 
 H                     1.59169  -4.05671   0.2876 
 H                    -2.71444   2.12748   3.98059 
 H                    -1.49621   1.40614   2.91693 
 H                    -1.27337   3.04992   3.54325 
 H                    -1.8821    4.85221   2.22776 
 H                    -5.00387  -1.38084   3.91255 
 H                    -4.40738   4.38736  -1.19609 
 H                    -4.52183  -2.47533  -1.41379 
 H                    -5.08151  -3.73598  -0.2998 
 H                    -4.78375   1.01512   3.29611 
 H                    -4.05881  -4.42383  -2.77037 
 H                    -3.62874  -5.40345  -1.37024 
 H                    -1.36275  -4.9502   -3.59456 
 H                     4.4622   -1.98359   0.35973 
 H                     0.87727  -3.89041  -3.40756 
 H                     3.84352  -0.06555  -3.41655 
 H                    -3.03668  -5.01405   0.89548 
 H                    -1.91706  -3.89452   1.69179 
 H                    -3.71296  -3.87026   3.31271 
 H                    -4.95284  -4.01607   2.06875 
 
 ITRead=  0  0  0  0  0  0  0  0  0  0  0  0  0  0  0  0  0  0  0  0
 ITRead=  0  0  0  0  0  0  0  0  0  0  0  0  0  0  0  0  0  0  0  0
 ITRead=  0  0  0  0  0  0  0  0  0  0  0  0  0  0  0  0  0  0  0  0
 ITRead=  0  0  0  0  0  0  0  0  0  0  0  0  0  0  0  0  0  0  0  0
 ITRead=  0  0  0  0  0  0  0  0  0  0  0  0  0  0  0  0  0  0  0  0
 ITRead=  0  0
 MicOpt= -1 -1 -1 -1 -1 -1 -1 -1 -1 -1 -1 -1 -1 -1 -1 -1 -1 -1 -1 -1
 MicOpt= -1 -1 -1 -1 -1 -1 -1 -1 -1 -1 -1 -1 -1 -1 -1 -1 -1 -1 -1 -1
 MicOpt= -1 -1 -1 -1 -1 -1 -1 -1 -1 -1 -1 -1 -1 -1 -1 -1 -1 -1 -1 -1
 MicOpt= -1 -1 -1 -1 -1 -1 -1 -1 -1 -1 -1 -1 -1 -1 -1 -1 -1 -1 -1 -1
 MicOpt= -1 -1 -1 -1 -1 -1 -1 -1 -1 -1 -1 -1 -1 -1 -1 -1 -1 -1 -1 -1
 MicOpt= -1 -1
 NAtoms=    102 NQM=      102 NQMF=       0 NMMI=      0 NMMIF=      0
                NMic=       0 NMicF=      0.
                    Isotopes and Nuclear Properties:
 (Nuclear quadrupole moments (NQMom) in fm**2, nuclear magnetic moments (NMagM)
  in nuclear magnetons)

  Atom         1           2           3           4           5           6           7           8           9          10
 IAtWgt=          16          14          16          16          12          14          12          12          12          12
 AtmWgt=  15.9949146  14.0030740  15.9949146  15.9949146  12.0000000  14.0030740  12.0000000  12.0000000  12.0000000  12.0000000
 NucSpn=           0           2           0           0           0           2           0           0           0           0
 AtZEff=  -0.0000000  -0.0000000  -0.0000000  -0.0000000  -0.0000000  -0.0000000  -0.0000000  -0.0000000  -0.0000000  -0.0000000
 NQMom=    0.0000000   2.0440000   0.0000000   0.0000000   0.0000000   2.0440000   0.0000000   0.0000000   0.0000000   0.0000000
 NMagM=    0.0000000   0.4037610   0.0000000   0.0000000   0.0000000   0.4037610   0.0000000   0.0000000   0.0000000   0.0000000
 AtZNuc=   8.0000000   7.0000000   8.0000000   8.0000000   6.0000000   7.0000000   6.0000000   6.0000000   6.0000000   6.0000000

  Atom        11          12          13          14          15          16          17          18          19          20
 IAtWgt=          12          12          12          12          12          16          16           1           1           1
 AtmWgt=  12.0000000  12.0000000  12.0000000  12.0000000  12.0000000  15.9949146  15.9949146   1.0078250   1.0078250   1.0078250
 NucSpn=           0           0           0           0           0           0           0           1           1           1
 AtZEff=  -0.0000000  -0.0000000  -0.0000000  -0.0000000  -0.0000000  -0.0000000  -0.0000000  -0.0000000  -0.0000000  -0.0000000
 NQMom=    0.0000000   0.0000000   0.0000000   0.0000000   0.0000000   0.0000000   0.0000000   0.0000000   0.0000000   0.0000000
 NMagM=    0.0000000   0.0000000   0.0000000   0.0000000   0.0000000   0.0000000   0.0000000   2.7928460   2.7928460   2.7928460
 AtZNuc=   6.0000000   6.0000000   6.0000000   6.0000000   6.0000000   8.0000000   8.0000000   1.0000000   1.0000000   1.0000000

  Atom        21          22          23          24          25          26          27          28          29          30
 IAtWgt=           1           1           1           1           1           1           1          16          16          12
 AtmWgt=   1.0078250   1.0078250   1.0078250   1.0078250   1.0078250   1.0078250   1.0078250  15.9949146  15.9949146  12.0000000
 NucSpn=           1           1           1           1           1           1           1           0           0           0
 AtZEff=  -0.0000000  -0.0000000  -0.0000000  -0.0000000  -0.0000000  -0.0000000  -0.0000000  -0.0000000  -0.0000000  -0.0000000
 NQMom=    0.0000000   0.0000000   0.0000000   0.0000000   0.0000000   0.0000000   0.0000000   0.0000000   0.0000000   0.0000000
 NMagM=    2.7928460   2.7928460   2.7928460   2.7928460   2.7928460   2.7928460   2.7928460   0.0000000   0.0000000   0.0000000
 AtZNuc=   1.0000000   1.0000000   1.0000000   1.0000000   1.0000000   1.0000000   1.0000000   8.0000000   8.0000000   6.0000000

  Atom        31          32          33          34          35          36          37          38          39          40
 IAtWgt=          16          12          12          16          12          12          12          12          12          12
 AtmWgt=  15.9949146  12.0000000  12.0000000  15.9949146  12.0000000  12.0000000  12.0000000  12.0000000  12.0000000  12.0000000
 NucSpn=           0           0           0           0           0           0           0           0           0           0
 AtZEff=  -0.0000000  -0.0000000  -0.0000000  -0.0000000  -0.0000000  -0.0000000  -0.0000000  -0.0000000  -0.0000000  -0.0000000
 NQMom=    0.0000000   0.0000000   0.0000000   0.0000000   0.0000000   0.0000000   0.0000000   0.0000000   0.0000000   0.0000000
 NMagM=    0.0000000   0.0000000   0.0000000   0.0000000   0.0000000   0.0000000   0.0000000   0.0000000   0.0000000   0.0000000
 AtZNuc=   8.0000000   6.0000000   6.0000000   8.0000000   6.0000000   6.0000000   6.0000000   6.0000000   6.0000000   6.0000000

  Atom        41          42          43          44          45          46          47          48          49          50
 IAtWgt=          12          12          12          12          12          12          12          12          12          12
 AtmWgt=  12.0000000  12.0000000  12.0000000  12.0000000  12.0000000  12.0000000  12.0000000  12.0000000  12.0000000  12.0000000
 NucSpn=           0           0           0           0           0           0           0           0           0           0
 AtZEff=  -0.0000000  -0.0000000  -0.0000000  -0.0000000  -0.0000000  -0.0000000  -0.0000000  -0.0000000  -0.0000000  -0.0000000
 NQMom=    0.0000000   0.0000000   0.0000000   0.0000000   0.0000000   0.0000000   0.0000000   0.0000000   0.0000000   0.0000000
 NMagM=    0.0000000   0.0000000   0.0000000   0.0000000   0.0000000   0.0000000   0.0000000   0.0000000   0.0000000   0.0000000
 AtZNuc=   6.0000000   6.0000000   6.0000000   6.0000000   6.0000000   6.0000000   6.0000000   6.0000000   6.0000000   6.0000000

  Atom        51          52          53          54          55          56          57          58          59          60
 IAtWgt=          12          12          12          12          12          12          12          12          12          12
 AtmWgt=  12.0000000  12.0000000  12.0000000  12.0000000  12.0000000  12.0000000  12.0000000  12.0000000  12.0000000  12.0000000
 NucSpn=           0           0           0           0           0           0           0           0           0           0
 AtZEff=  -0.0000000  -0.0000000  -0.0000000  -0.0000000  -0.0000000  -0.0000000  -0.0000000  -0.0000000  -0.0000000  -0.0000000
 NQMom=    0.0000000   0.0000000   0.0000000   0.0000000   0.0000000   0.0000000   0.0000000   0.0000000   0.0000000   0.0000000
 NMagM=    0.0000000   0.0000000   0.0000000   0.0000000   0.0000000   0.0000000   0.0000000   0.0000000   0.0000000   0.0000000
 AtZNuc=   6.0000000   6.0000000   6.0000000   6.0000000   6.0000000   6.0000000   6.0000000   6.0000000   6.0000000   6.0000000

  Atom        61          62          63          64          65          66          67          68          69          70
 IAtWgt=          12          12          12          12          12          12          31           1           1           1
 AtmWgt=  12.0000000  12.0000000  12.0000000  12.0000000  12.0000000  12.0000000  30.9737634   1.0078250   1.0078250   1.0078250
 NucSpn=           0           0           0           0           0           0           1           1           1           1
 AtZEff=  -0.0000000  -0.0000000  -0.0000000  -0.0000000  -0.0000000  -0.0000000  -0.0000000  -0.0000000  -0.0000000  -0.0000000
 NQMom=    0.0000000   0.0000000   0.0000000   0.0000000   0.0000000   0.0000000   0.0000000   0.0000000   0.0000000   0.0000000
 NMagM=    0.0000000   0.0000000   0.0000000   0.0000000   0.0000000   0.0000000   1.1316000   2.7928460   2.7928460   2.7928460
 AtZNuc=   6.0000000   6.0000000   6.0000000   6.0000000   6.0000000   6.0000000  15.0000000   1.0000000   1.0000000   1.0000000

  Atom        71          72          73          74          75          76          77          78          79          80
 IAtWgt=           1           1           1           1           1           1           1           1           1           1
 AtmWgt=   1.0078250   1.0078250   1.0078250   1.0078250   1.0078250   1.0078250   1.0078250   1.0078250   1.0078250   1.0078250
 NucSpn=           1           1           1           1           1           1           1           1           1           1
 AtZEff=  -0.0000000  -0.0000000  -0.0000000  -0.0000000  -0.0000000  -0.0000000  -0.0000000  -0.0000000  -0.0000000  -0.0000000
 NQMom=    0.0000000   0.0000000   0.0000000   0.0000000   0.0000000   0.0000000   0.0000000   0.0000000   0.0000000   0.0000000
 NMagM=    2.7928460   2.7928460   2.7928460   2.7928460   2.7928460   2.7928460   2.7928460   2.7928460   2.7928460   2.7928460
 AtZNuc=   1.0000000   1.0000000   1.0000000   1.0000000   1.0000000   1.0000000   1.0000000   1.0000000   1.0000000   1.0000000

  Atom        81          82          83          84          85          86          87          88          89          90
 IAtWgt=           1           1           1           1           1           1           1           1           1           1
 AtmWgt=   1.0078250   1.0078250   1.0078250   1.0078250   1.0078250   1.0078250   1.0078250   1.0078250   1.0078250   1.0078250
 NucSpn=           1           1           1           1           1           1           1           1           1           1
 AtZEff=  -0.0000000  -0.0000000  -0.0000000  -0.0000000  -0.0000000  -0.0000000  -0.0000000  -0.0000000  -0.0000000  -0.0000000
 NQMom=    0.0000000   0.0000000   0.0000000   0.0000000   0.0000000   0.0000000   0.0000000   0.0000000   0.0000000   0.0000000
 NMagM=    2.7928460   2.7928460   2.7928460   2.7928460   2.7928460   2.7928460   2.7928460   2.7928460   2.7928460   2.7928460
 AtZNuc=   1.0000000   1.0000000   1.0000000   1.0000000   1.0000000   1.0000000   1.0000000   1.0000000   1.0000000   1.0000000

  Atom        91          92          93          94          95          96          97          98          99         100
 IAtWgt=           1           1           1           1           1           1           1           1           1           1
 AtmWgt=   1.0078250   1.0078250   1.0078250   1.0078250   1.0078250   1.0078250   1.0078250   1.0078250   1.0078250   1.0078250
 NucSpn=           1           1           1           1           1           1           1           1           1           1
 AtZEff=  -0.0000000  -0.0000000  -0.0000000  -0.0000000  -0.0000000  -0.0000000  -0.0000000  -0.0000000  -0.0000000  -0.0000000
 NQMom=    0.0000000   0.0000000   0.0000000   0.0000000   0.0000000   0.0000000   0.0000000   0.0000000   0.0000000   0.0000000
 NMagM=    2.7928460   2.7928460   2.7928460   2.7928460   2.7928460   2.7928460   2.7928460   2.7928460   2.7928460   2.7928460
 AtZNuc=   1.0000000   1.0000000   1.0000000   1.0000000   1.0000000   1.0000000   1.0000000   1.0000000   1.0000000   1.0000000

  Atom       101         102
 IAtWgt=           1           1
 AtmWgt=   1.0078250   1.0078250
 NucSpn=           1           1
 AtZEff=  -0.0000000  -0.0000000
 NQMom=    0.0000000   0.0000000
 NMagM=    2.7928460   2.7928460
 AtZNuc=   1.0000000   1.0000000
 Leave Link  101 at Sat Oct 29 10:49:05 2022, MaxMem=  8053063680 cpu:               6.0 elap:               0.7
 (Enter /project/chenjingdan/g16/l123.exe)
 IRC-IRC-IRC-IRC-IRC-IRC-IRC-IRC-IRC-IRC-IRC-IRC-IRC-IRC-IRC-IRC-IRC-IRC
 ------------------------------------------------------------------------
 INPUT DATA FOR L123
 ------------------------------------------------------------------------
 GENERAL PARAMETERS:
 Follow reaction path in both directions.
 Maximum points per path      =  30
 Step size                    =   0.100 bohr
 Integration scheme           = LQA                                 
 Initial Hessian              = CalcFC
 Hessian evaluation           = All updating
 Hessian updating method      = Bofill                              
 ------------------------------------------------------------------------
 IRC-IRC-IRC-IRC-IRC-IRC-IRC-IRC-IRC-IRC-IRC-IRC-IRC-IRC-IRC-IRC-IRC-IRC
 Leave Link  123 at Sat Oct 29 10:49:05 2022, MaxMem=  8053063680 cpu:               0.4 elap:               0.1
 (Enter /project/chenjingdan/g16/l202.exe)
 Symmetry turned off by external request.
 Stoichiometry    C45H45N2O9P
 Framework group  C1[X(C45H45N2O9P)]
 Deg. of freedom   300
 Full point group                 C1      NOp   1
                          Input orientation:                          
 ---------------------------------------------------------------------
 Center     Atomic      Atomic             Coordinates (Angstroms)
 Number     Number       Type             X           Y           Z
 ---------------------------------------------------------------------
      1          8           0        0.770583    3.345149   -3.893560
      2          7           0        1.700392    2.150518   -0.563140
      3          8           0        2.684012    2.380898   -3.320370
      4          8           0        3.888792    2.244037   -1.235040
      5          6           0       -0.143387    3.626130   -1.272910
      6          7           0        4.931189   -0.837224    4.209680
      7          6           0        4.405120   -0.107984    3.040480
      8          6           0        1.552522    2.784198   -2.969810
      9          6           0        3.429761    1.232427    0.852560
     10          6           0        0.915712    2.616799   -1.696060
     11          6           0        2.973661    1.910477   -0.388660
     12          6           0        2.567700    0.437448    1.617190
     13          6           0        5.280590    0.672806    2.298370
     14          6           0        4.781341    1.344436    1.191280
     15          6           0        3.060110   -0.238873    2.725750
     16          8           0        6.110219   -0.694905    4.473810
     17          8           0        4.152579   -1.533734    4.832060
     18          1           0        1.259663    3.309059   -4.729260
     19          1           0        1.056531    1.840279    0.183620
     20          1           0        3.459712    2.326637   -2.214780
     21          1           0        0.298474    4.587549   -0.989280
     22          1           0       -0.842957    3.788350   -2.093660
     23          1           0       -0.709448    3.239030   -0.420240
     24          1           0        1.523240    0.305458    1.347140
     25          1           0        6.321111    0.737885    2.589910
     26          1           0        5.435281    1.947865    0.572610
     27          1           0        2.424729   -0.873212    3.330790
     28          8           0       -0.470750    0.434200   -1.790550
     29          8           0       -2.531910   -0.008838   -0.512850
     30          6           0       -2.850575    6.218612    0.081310
     31          8           0       -0.445171   -1.334520    0.098440
     32          6           0       -5.032279    1.789374   -0.880570
     33          6           0        5.741440   -0.462545   -1.507470
     34          8           0       -0.489109    1.078320    0.721370
     35          6           0        1.353889   -0.912641   -3.907730
     36          6           0        2.046228   -3.122922    0.631390
     37          6           0       -2.010798    2.336101    3.168960
     38          6           0       -2.518467    4.229992    1.601720
     39          6           0       -3.403671   -1.705918    0.922610
     40          6           0       -4.520701   -1.099107    2.981760
     41          6           0       -3.923317    3.969443   -0.315710
     42          6           0       -3.110776    4.785222    0.468460
     43          6           0       -1.879222   -3.003379   -0.845870
     44          6           0       -3.519628    2.084652    1.138170
     45          6           0       -3.232480   -0.361288    0.633800
     46          6           0       -3.056542   -2.942178    0.112510
     47          6           0       -4.138498    2.627463   -0.001080
     48          6           0       -4.211183   -3.356837   -0.842990
     49          6           0       -2.705788    2.892972    1.951850
     50          6           0       -4.015242   -2.068837    2.125520
     51          6           0       -4.386220    0.245823    2.640680
     52          6           0        0.366308   -2.669611   -1.726730
     53          6           0       -0.653482   -2.355820   -0.820190
     54          6           0       -3.574563   -4.391748   -1.790710
     55          6           0       -3.720780    0.644753    1.476590
     56          6           0       -1.159753   -4.239369   -2.799150
     57          6           0        1.711928   -2.026472   -1.640150
     58          6           0       -2.141313   -3.916339   -1.871700
     59          6           0        3.827839   -1.769973   -0.499480
     60          6           0        0.092167   -3.633560   -2.702330
     61          6           0        2.531828   -2.287362   -0.526400
     62          6           0        3.483779   -0.699323   -2.607940
     63          6           0        2.190099   -1.217002   -2.688410
     64          6           0        4.327689   -0.983344   -1.533640
     65          6           0       -2.917653   -3.988448    1.256240
     66          6           0       -3.976123   -3.570747    2.294740
     67         15           0       -0.930360    0.147710   -0.358980
     68          1           0        0.175711    1.461710   -1.903720
     69          1           0       -1.997005    6.288081   -0.602340
     70          1           0       -3.713715    6.655323   -0.427260
     71          1           0       -2.622195    6.831372    0.956720
     72          1           0       -5.619658    2.424264   -1.547480
     73          1           0       -5.721159    1.184114   -0.284670
     74          1           0       -4.439569    1.104673   -1.494910
     75          1           0        5.760710    0.618665   -1.672830
     76          1           0        6.220659   -0.672855   -0.547820
     77          1           0        6.342779   -0.930355   -2.293430
     78          1           0        1.695460    0.019808   -4.366630
     79          1           0        1.451869   -1.703631   -4.659490
     80          1           0        0.298289   -0.813991   -3.652070
     81          1           0        1.285268   -2.584681    1.206910
     82          1           0        2.872627   -3.367423    1.302930
     83          1           0        1.591687   -4.056712    0.287600
     84          1           0       -2.714438    2.127482    3.980590
     85          1           0       -1.496209    1.406141    2.916930
     86          1           0       -1.273368    3.049921    3.543250
     87          1           0       -1.882096    4.852211    2.227760
     88          1           0       -5.003871   -1.380836    3.912550
     89          1           0       -4.407377    4.387363   -1.196090
     90          1           0       -4.521832   -2.475327   -1.413790
     91          1           0       -5.081513   -3.735976   -0.299800
     92          1           0       -4.783749    1.015123    3.296110
     93          1           0       -4.058813   -4.423827   -2.770370
     94          1           0       -3.628744   -5.403448   -1.370240
     95          1           0       -1.362754   -4.950199   -3.594560
     96          1           0        4.462198   -1.983594    0.359730
     97          1           0        0.877267   -3.890411   -3.407560
     98          1           0        3.843520   -0.065553   -3.416550
     99          1           0       -3.036684   -5.014048    0.895480
    100          1           0       -1.917063   -3.894519    1.691790
    101          1           0       -3.712963   -3.870257    3.312710
    102          1           0       -4.952843   -4.016067    2.068750
 ---------------------------------------------------------------------
 Rotational constants (GHZ):           0.0590595           0.0432703           0.0386028
 Leave Link  202 at Sat Oct 29 10:49:05 2022, MaxMem=  8053063680 cpu:               0.9 elap:               0.1
 (Enter /project/chenjingdan/g16/l301.exe)
 Standard basis: 6-31G(d,p) (6D, 7F)
 Ernie: Thresh=  0.10000D-02 Tol=  0.10000D-05 Strict=F.
  1084 basis functions,  1935 primitive gaussians,  1084 cartesian basis functions
   208 alpha electrons      208 beta electrons
       nuclear repulsion energy      9247.0481939595 Hartrees.
 IExCor= 4336 DFT=T Ex+Corr=M062X ExCW=0 ScaHFX=  0.540000
 ScaDFX=  1.000000  1.000000  1.000000  1.000000 ScalE2=  1.000000  1.000000
 IRadAn=      5 IRanWt=     -1 IRanGd=            0 ICorTp=0 IEmpDi=  4
 NAtoms=  102 NActive=  102 NUniq=  102 SFac= 1.00D+00 NAtFMM=   60 NAOKFM=T Big=T
 Integral buffers will be    131072 words long.
 Raffenetti 2 integral format.
 Two-electron integral symmetry is turned off.
 Leave Link  301 at Sat Oct 29 10:49:06 2022, MaxMem=  8053063680 cpu:               1.0 elap:               0.1
 (Enter /project/chenjingdan/g16/l302.exe)
 NPDir=0 NMtPBC=     1 NCelOv=     1 NCel=       1 NClECP=     1 NCelD=      1
         NCelK=      1 NCelE2=     1 NClLst=     1 CellRange=     0.0.
 One-electron integrals computed using PRISM.
 NBasis=  1084 RedAO= T EigKep=  2.35D-04  NBF=  1084
 NBsUse=  1084 1.00D-06 EigRej= -1.00D+00 NBFU=  1084
 Precomputing XC quadrature grid using
 IXCGrd= 4 IRadAn=           5 IRanWt=          -1 IRanGd=           0 AccXCQ= 0.00D+00.
 Generated NRdTot=       0 NPtTot=           0 NUsed=           0 NTot=          32
 NSgBfM=  1043  1026  1026  1027  1043 MxSgAt=   102 MxSgA2=   102.
 Leave Link  302 at Sat Oct 29 10:49:08 2022, MaxMem=  8053063680 cpu:              41.0 elap:               2.7
 (Enter /project/chenjingdan/g16/l303.exe)
 DipDrv:  MaxL=1.
 Leave Link  303 at Sat Oct 29 10:49:09 2022, MaxMem=  8053063680 cpu:               2.6 elap:               0.3
 (Enter /project/chenjingdan/g16/l401.exe)
 ExpMin= 9.98D-02 ExpMax= 1.94D+04 ExpMxC= 2.91D+03 IAcc=3 IRadAn=         5 AccDes= 0.00D+00
 Harris functional with IExCor= 1009 and IRadAn=       5 diagonalized for initial guess.
 HarFok:  IExCor= 1009 AccDes= 0.00D+00 IRadAn=         5 IDoV= 1 UseB2=F ITyADJ=14
 ICtDFT=  3500011 ScaDFX=  1.000000  1.000000  1.000000  1.000000
 FoFCou: FMM=F IPFlag=           0 FMFlag=      100000 FMFlg1=        2001
         NFxFlg=           0 DoJE=T BraDBF=F KetDBF=T FulRan=T
         wScrn=  0.000000 ICntrl=       500 IOpCl=  0 I1Cent=   200000004 NGrid=           0
         NMat0=    1 NMatS0=      1 NMatT0=    0 NMatD0=    1 NMtDS0=    0 NMtDT0=    0
 Symmetry not used in FoFCou.
 Harris En= -2867.59219841157    
 JPrj=0 DoOrth=F DoCkMO=F.
 Leave Link  401 at Sat Oct 29 10:49:15 2022, MaxMem=  8053063680 cpu:             104.5 elap:               6.7
 (Enter /project/chenjingdan/g16/l502.exe)
 Two-electron integral symmetry not used.
 Closed shell SCF:
 Using DIIS extrapolation, IDIIS=  1040.
 NGot=  8053063680 LenX=  8050685130 LenY=  8049508990
 Requested convergence on RMS density matrix=1.00D-08 within 128 cycles.
 Requested convergence on MAX density matrix=1.00D-06.
 Requested convergence on             energy=1.00D-06.
 No special actions if energy rises.
 Fock matrices will be formed incrementally for  20 cycles.
 Integral accuracy reduced to 1.0D-05 until final iterations.

 Cycle   1  Pass 0  IDiag  1:
 FoFJK:  IHMeth= 1 ICntrl=       0 DoSepK=F KAlg= 0 I1Cent=           0 FoldK=F
 IRaf= 770000000 NMat=       1 IRICut=       1 DoRegI=T DoRafI=F ISym2E= 0 IDoP0=0 IntGTp=1.
 FoFCou: FMM=T IPFlag=           0 FMFlag=      100000 FMFlg1=        2001
         NFxFlg=           0 DoJE=F BraDBF=F KetDBF=F FulRan=T
         wScrn=  0.000000 ICntrl=         0 IOpCl=  0 I1Cent=           0 NGrid=           0
         NMat0=    1 NMatS0=      1 NMatT0=    0 NMatD0=    1 NMtDS0=    0 NMtDT0=    0
 Symmetry not used in FoFCou.
 FMM levels:  10  Number of levels for PrismC:   9
 E= -2867.38968079841    
 DIIS: error= 1.92D-02 at cycle   1 NSaved=   1.
 NSaved= 1 IEnMin= 1 EnMin= -2867.38968079841     IErMin= 1 ErrMin= 1.92D-02
 ErrMax= 1.92D-02  0.00D+00 EMaxC= 1.00D-01 BMatC= 1.74D+00 BMatP= 1.74D+00
 IDIUse=3 WtCom= 8.08D-01 WtEn= 1.92D-01
 Coeff-Com:  0.100D+01
 Coeff-En:   0.100D+01
 Coeff:      0.100D+01
 Gap=     0.193 Goal=   None    Shift=    0.000
 GapD=    0.193 DampG=1.000 DampE=0.500 DampFc=0.5000 IDamp=-1.
 Damping current iteration by 5.00D-01
 RMSDP=2.16D-03 MaxDP=2.33D-01              OVMax= 2.57D-01

 Cycle   2  Pass 0  IDiag  1:
 RMSU=  1.07D-03    CP:  9.81D-01
 E= -2868.11060738610     Delta-E=       -0.720926587686 Rises=F Damp=T
 DIIS: error= 9.14D-03 at cycle   2 NSaved=   2.
 NSaved= 2 IEnMin= 2 EnMin= -2868.11060738610     IErMin= 2 ErrMin= 9.14D-03
 ErrMax= 9.14D-03  0.00D+00 EMaxC= 1.00D-01 BMatC= 1.43D-01 BMatP= 1.74D+00
 IDIUse=3 WtCom= 9.09D-01 WtEn= 9.14D-02
 Coeff-Com: -0.477D-01 0.105D+01
 Coeff-En:   0.000D+00 0.100D+01
 Coeff:     -0.434D-01 0.104D+01
 Gap=     0.225 Goal=   None    Shift=    0.000
 RMSDP=6.54D-04 MaxDP=9.34D-02 DE=-7.21D-01 OVMax= 1.98D-01

 Cycle   3  Pass 0  IDiag  1:
 RMSU=  6.35D-04    CP:  9.68D-01  1.09D+00
 E= -2868.79116364667     Delta-E=       -0.680556260568 Rises=F Damp=F
 DIIS: error= 7.73D-03 at cycle   3 NSaved=   3.
 NSaved= 3 IEnMin= 3 EnMin= -2868.79116364667     IErMin= 3 ErrMin= 7.73D-03
 ErrMax= 7.73D-03  0.00D+00 EMaxC= 1.00D-01 BMatC= 7.49D-02 BMatP= 1.43D-01
 IDIUse=3 WtCom= 9.23D-01 WtEn= 7.73D-02
 Coeff-Com: -0.853D-01 0.454D+00 0.632D+00
 Coeff-En:   0.000D+00 0.000D+00 0.100D+01
 Coeff:     -0.787D-01 0.419D+00 0.660D+00
 Gap=     0.199 Goal=   None    Shift=    0.000
 RMSDP=3.12D-04 MaxDP=4.21D-02 DE=-6.81D-01 OVMax= 6.77D-02

 Cycle   4  Pass 0  IDiag  1:
 RMSU=  2.39D-04    CP:  9.71D-01  1.14D+00  6.99D-01
 E= -2868.83847071985     Delta-E=       -0.047307073180 Rises=F Damp=F
 DIIS: error= 3.02D-03 at cycle   4 NSaved=   4.
 NSaved= 4 IEnMin= 4 EnMin= -2868.83847071985     IErMin= 4 ErrMin= 3.02D-03
 ErrMax= 3.02D-03  0.00D+00 EMaxC= 1.00D-01 BMatC= 1.43D-02 BMatP= 7.49D-02
 IDIUse=3 WtCom= 9.70D-01 WtEn= 3.02D-02
 Coeff-Com: -0.264D-01 0.804D-01 0.335D+00 0.611D+00
 Coeff-En:   0.000D+00 0.000D+00 0.156D+00 0.844D+00
 Coeff:     -0.256D-01 0.780D-01 0.330D+00 0.618D+00
 Gap=     0.195 Goal=   None    Shift=    0.000
 RMSDP=1.29D-04 MaxDP=1.10D-02 DE=-4.73D-02 OVMax= 1.91D-02

 Cycle   5  Pass 0  IDiag  1:
 RMSU=  5.98D-05    CP:  9.70D-01  1.14D+00  7.89D-01  5.87D-01
 E= -2868.84976949253     Delta-E=       -0.011298772684 Rises=F Damp=F
 DIIS: error= 4.26D-04 at cycle   5 NSaved=   5.
 NSaved= 5 IEnMin= 5 EnMin= -2868.84976949253     IErMin= 5 ErrMin= 4.26D-04
 ErrMax= 4.26D-04  0.00D+00 EMaxC= 1.00D-01 BMatC= 7.72D-04 BMatP= 1.43D-02
 IDIUse=3 WtCom= 9.96D-01 WtEn= 4.26D-03
 Coeff-Com: -0.899D-02 0.203D-01 0.139D+00 0.314D+00 0.536D+00
 Coeff-En:   0.000D+00 0.000D+00 0.000D+00 0.000D+00 0.100D+01
 Coeff:     -0.895D-02 0.203D-01 0.138D+00 0.313D+00 0.538D+00
 Gap=     0.196 Goal=   None    Shift=    0.000
 RMSDP=3.52D-05 MaxDP=2.36D-03 DE=-1.13D-02 OVMax= 5.60D-03

 Cycle   6  Pass 0  IDiag  1:
 RMSU=  1.92D-05    CP:  9.70D-01  1.14D+00  7.86D-01  6.52D-01  5.82D-01
 E= -2868.85048074764     Delta-E=       -0.000711255108 Rises=F Damp=F
 DIIS: error= 1.36D-04 at cycle   6 NSaved=   6.
 NSaved= 6 IEnMin= 6 EnMin= -2868.85048074764     IErMin= 6 ErrMin= 1.36D-04
 ErrMax= 1.36D-04  0.00D+00 EMaxC= 1.00D-01 BMatC= 5.09D-05 BMatP= 7.72D-04
 IDIUse=3 WtCom= 9.99D-01 WtEn= 1.36D-03
 Coeff-Com: -0.124D-02 0.117D-02 0.285D-01 0.772D-01 0.248D+00 0.646D+00
 Coeff-En:   0.000D+00 0.000D+00 0.000D+00 0.000D+00 0.000D+00 0.100D+01
 Coeff:     -0.124D-02 0.117D-02 0.284D-01 0.771D-01 0.248D+00 0.647D+00
 Gap=     0.196 Goal=   None    Shift=    0.000
 RMSDP=9.80D-06 MaxDP=6.81D-04 DE=-7.11D-04 OVMax= 1.57D-03

 Initial convergence to 1.0D-05 achieved.  Increase integral accuracy.
 Cycle   7  Pass 1  IDiag  1:
 E= -2868.85031026062     Delta-E=        0.000170487019 Rises=F Damp=F
 DIIS: error= 3.10D-04 at cycle   1 NSaved=   1.
 NSaved= 1 IEnMin= 1 EnMin= -2868.85031026062     IErMin= 1 ErrMin= 3.10D-04
 ErrMax= 3.10D-04  0.00D+00 EMaxC= 1.00D-01 BMatC= 7.48D-05 BMatP= 7.48D-05
 IDIUse=3 WtCom= 9.97D-01 WtEn= 3.10D-03
 Coeff-Com:  0.100D+01
 Coeff-En:   0.100D+01
 Coeff:      0.100D+01
 Gap=     0.196 Goal=   None    Shift=    0.000
 RMSDP=9.80D-06 MaxDP=6.81D-04 DE= 1.70D-04 OVMax= 1.38D-03

 Cycle   8  Pass 1  IDiag  1:
 RMSU=  1.40D-04    CP:  1.00D+00
 E= -2868.85036325014     Delta-E=       -0.000052989517 Rises=F Damp=F
 DIIS: error= 7.06D-05 at cycle   2 NSaved=   2.
 NSaved= 2 IEnMin= 2 EnMin= -2868.85036325014     IErMin= 2 ErrMin= 7.06D-05
 ErrMax= 7.06D-05  0.00D+00 EMaxC= 1.00D-01 BMatC= 1.29D-05 BMatP= 7.48D-05
 IDIUse=1 WtCom= 1.00D+00 WtEn= 0.00D+00
 Coeff-Com:  0.194D+00 0.806D+00
 Coeff:      0.194D+00 0.806D+00
 Gap=     0.196 Goal=   None    Shift=    0.000
 RMSDP=8.32D-06 MaxDP=5.83D-04 DE=-5.30D-05 OVMax= 1.62D-03

 Cycle   9  Pass 1  IDiag  1:
 RMSU=  7.92D-06    CP:  1.00D+00  1.02D+00
 E= -2868.85035979764     Delta-E=        0.000003452500 Rises=F Damp=F
 DIIS: error= 8.48D-05 at cycle   3 NSaved=   3.
 NSaved= 3 IEnMin= 2 EnMin= -2868.85036325014     IErMin= 2 ErrMin= 7.06D-05
 ErrMax= 8.48D-05  0.00D+00 EMaxC= 1.00D-01 BMatC= 1.62D-05 BMatP= 1.29D-05
 IDIUse=1 WtCom= 1.00D+00 WtEn= 0.00D+00
 Coeff-Com: -0.801D-02 0.531D+00 0.477D+00
 Coeff:     -0.801D-02 0.531D+00 0.477D+00
 Gap=     0.196 Goal=   None    Shift=    0.000
 RMSDP=4.49D-06 MaxDP=3.17D-04 DE= 3.45D-06 OVMax= 9.30D-04

 Cycle  10  Pass 1  IDiag  1:
 RMSU=  1.14D-06    CP:  1.00D+00  1.03D+00  4.71D-01
 E= -2868.85037542811     Delta-E=       -0.000015630469 Rises=F Damp=F
 DIIS: error= 1.60D-05 at cycle   4 NSaved=   4.
 NSaved= 4 IEnMin= 4 EnMin= -2868.85037542811     IErMin= 4 ErrMin= 1.60D-05
 ErrMax= 1.60D-05  0.00D+00 EMaxC= 1.00D-01 BMatC= 2.74D-07 BMatP= 1.29D-05
 IDIUse=1 WtCom= 1.00D+00 WtEn= 0.00D+00
 Coeff-Com: -0.829D-02 0.287D+00 0.271D+00 0.450D+00
 Coeff:     -0.829D-02 0.287D+00 0.271D+00 0.450D+00
 Gap=     0.196 Goal=   None    Shift=    0.000
 RMSDP=5.04D-07 MaxDP=8.23D-05 DE=-1.56D-05 OVMax= 1.43D-04

 Cycle  11  Pass 1  IDiag  1:
 RMSU=  3.75D-07    CP:  1.00D+00  1.03D+00  4.89D-01  7.36D-01
 E= -2868.85037565230     Delta-E=       -0.000000224196 Rises=F Damp=F
 DIIS: error= 4.57D-06 at cycle   5 NSaved=   5.
 NSaved= 5 IEnMin= 5 EnMin= -2868.85037565230     IErMin= 5 ErrMin= 4.57D-06
 ErrMax= 4.57D-06  0.00D+00 EMaxC= 1.00D-01 BMatC= 8.46D-09 BMatP= 2.74D-07
 IDIUse=1 WtCom= 1.00D+00 WtEn= 0.00D+00
 Coeff-Com: -0.325D-02 0.980D-01 0.934D-01 0.196D+00 0.616D+00
 Coeff:     -0.325D-02 0.980D-01 0.934D-01 0.196D+00 0.616D+00
 Gap=     0.196 Goal=   None    Shift=    0.000
 RMSDP=1.20D-07 MaxDP=1.91D-05 DE=-2.24D-07 OVMax= 4.72D-05

 Cycle  12  Pass 1  IDiag  1:
 RMSU=  1.15D-07    CP:  1.00D+00  1.03D+00  4.90D-01  7.61D-01  9.91D-01
 E= -2868.85037565867     Delta-E=       -0.000000006366 Rises=F Damp=F
 DIIS: error= 2.67D-06 at cycle   6 NSaved=   6.
 NSaved= 6 IEnMin= 6 EnMin= -2868.85037565867     IErMin= 6 ErrMin= 2.67D-06
 ErrMax= 2.67D-06  0.00D+00 EMaxC= 1.00D-01 BMatC= 2.77D-09 BMatP= 8.46D-09
 IDIUse=1 WtCom= 1.00D+00 WtEn= 0.00D+00
 Coeff-Com:  0.591D-03-0.285D-01-0.269D-01-0.261D-01 0.366D+00 0.715D+00
 Coeff:      0.591D-03-0.285D-01-0.269D-01-0.261D-01 0.366D+00 0.715D+00
 Gap=     0.196 Goal=   None    Shift=    0.000
 RMSDP=7.11D-08 MaxDP=9.39D-06 DE=-6.37D-09 OVMax= 2.19D-05

 Cycle  13  Pass 1  IDiag  1:
 RMSU=  5.29D-08    CP:  1.00D+00  1.03D+00  4.89D-01  7.82D-01  1.08D+00
                    CP:  8.46D-01
 E= -2868.85037566153     Delta-E=       -0.000000002858 Rises=F Damp=F
 DIIS: error= 6.43D-07 at cycle   7 NSaved=   7.
 NSaved= 7 IEnMin= 7 EnMin= -2868.85037566153     IErMin= 7 ErrMin= 6.43D-07
 ErrMax= 6.43D-07  0.00D+00 EMaxC= 1.00D-01 BMatC= 3.78D-10 BMatP= 2.77D-09
 IDIUse=1 WtCom= 1.00D+00 WtEn= 0.00D+00
 Coeff-Com:  0.713D-03-0.274D-01-0.260D-01-0.394D-01 0.126D+00 0.390D+00
 Coeff-Com:  0.576D+00
 Coeff:      0.713D-03-0.274D-01-0.260D-01-0.394D-01 0.126D+00 0.390D+00
 Coeff:      0.576D+00
 Gap=     0.196 Goal=   None    Shift=    0.000
 RMSDP=2.45D-08 MaxDP=2.20D-06 DE=-2.86D-09 OVMax= 4.85D-06

 Cycle  14  Pass 1  IDiag  1:
 RMSU=  2.05D-08    CP:  1.00D+00  1.03D+00  4.90D-01  7.85D-01  1.10D+00
                    CP:  9.18D-01  9.46D-01
 E= -2868.85037566197     Delta-E=       -0.000000000442 Rises=F Damp=F
 DIIS: error= 1.40D-07 at cycle   8 NSaved=   8.
 NSaved= 8 IEnMin= 8 EnMin= -2868.85037566197     IErMin= 8 ErrMin= 1.40D-07
 ErrMax= 1.40D-07  0.00D+00 EMaxC= 1.00D-01 BMatC= 2.48D-11 BMatP= 3.78D-10
 IDIUse=1 WtCom= 1.00D+00 WtEn= 0.00D+00
 Coeff-Com:  0.208D-03-0.731D-02-0.698D-02-0.128D-01 0.581D-02 0.676D-01
 Coeff-Com:  0.220D+00 0.734D+00
 Coeff:      0.208D-03-0.731D-02-0.698D-02-0.128D-01 0.581D-02 0.676D-01
 Coeff:      0.220D+00 0.734D+00
 Gap=     0.196 Goal=   None    Shift=    0.000
 RMSDP=8.33D-09 MaxDP=8.04D-07 DE=-4.42D-10 OVMax= 1.73D-06

 SCF Done:  E(RM062X) =  -2868.85037566     A.U. after   14 cycles
            NFock= 14  Conv=0.83D-08     -V/T= 2.0079
 KE= 2.846336327795D+03 PE=-2.518666900806D+04 EE= 1.022443411064D+04
 Leave Link  502 at Sat Oct 29 10:54:05 2022, MaxMem=  8053063680 cpu:            4616.3 elap:             289.3
 (Enter /project/chenjingdan/g16/l801.exe)
 DoSCS=F DFT=T ScalE2(SS,OS)=  1.000000  1.000000
 Range of M.O.s used for correlation:     1  1084
 NBasis=  1084 NAE=   208 NBE=   208 NFC=     0 NFV=     0
 NROrb=   1084 NOA=   208 NOB=   208 NVA=   876 NVB=   876
 Leave Link  801 at Sat Oct 29 10:54:05 2022, MaxMem=  8053063680 cpu:               0.9 elap:               0.1
 (Enter /project/chenjingdan/g16/l1101.exe)
 Using compressed storage, NAtomX=   102.
 Will process    103 centers per pass.
 Leave Link 1101 at Sat Oct 29 10:54:11 2022, MaxMem=  8053063680 cpu:              83.7 elap:               6.0
 (Enter /project/chenjingdan/g16/l1102.exe)
 Symmetrizing basis deriv contribution to polar:
 IMax=3 JMax=2 DiffMx= 0.00D+00
 Leave Link 1102 at Sat Oct 29 10:54:11 2022, MaxMem=  8053063680 cpu:               2.3 elap:               0.3
 (Enter /project/chenjingdan/g16/l1110.exe)
 Forming Gx(P) for the SCF density, NAtomX=   102.
 Integral derivatives from FoFJK, PRISM(SPDF).
 Do as many integral derivatives as possible in FoFJK.
 G2DrvN: MDV=    8053053038.
 G2DrvN: will do   103 centers at a time, making    1 passes.
 Calling FoFCou, ICntrl=  3107 FMM=T I1Cent=   0 AccDes= 0.00D+00.
 FoFJK:  IHMeth= 1 ICntrl=    3107 DoSepK=F KAlg= 0 I1Cent=           0 FoldK=F
 IRaf=         0 NMat=       1 IRICut=       1 DoRegI=T DoRafI=F ISym2E= 0 IDoP0=0 IntGTp=1.
 FoFCou: FMM=T IPFlag=           0 FMFlag=      100000 FMFlg1=        2001
         NFxFlg=           0 DoJE=F BraDBF=F KetDBF=F FulRan=T
         wScrn=  0.000000 ICntrl=      3107 IOpCl=  0 I1Cent=           0 NGrid=           0
         NMat0=    1 NMatS0=      1 NMatT0=    0 NMatD0=    1 NMtDS0=    0 NMtDT0=    0
 Symmetry not used in FoFCou.
 FMM levels:  10  Number of levels for PrismC:   9
 End of G2Drv F.D. properties file   721 does not exist.
 End of G2Drv F.D. properties file   722 does not exist.
 End of G2Drv F.D. properties file   788 does not exist.
 Leave Link 1110 at Sat Oct 29 11:25:31 2022, MaxMem=  8053063680 cpu:           30041.1 elap:            1879.9
 (Enter /project/chenjingdan/g16/l1002.exe)
 Minotr:  Closed shell wavefunction.
          IDoAtm=11111111111111111111111111111111111111111111111111
          IDoAtm=11111111111111111111111111111111111111111111111111
          IDoAtm=11
          Direct CPHF calculation.
          Differentiating once with respect to nuclear coordinates.
          Requested convergence is 1.0D-08 RMS, and 1.0D-07 maximum.
          Secondary convergence is 1.0D-12 RMS, and 1.0D-12 maximum.
          NewPWx=T KeepS1=F KeepF1=F KeepIn=T MapXYZ=F SortEE=F KeepMc=T.
        30957 words used for storage of precomputed grid.
 Two-electron integral symmetry not used.
          MDV=    8053063680 using IRadAn=       1.
          Solving linear equations simultaneously, MaxMat=      72.
 FoF2E skips out because all densities are zero.
 CalDSu exits because no D1Ps are significant.
 FoFJK:  IHMeth= 1 ICntrl=       0 DoSepK=F KAlg= 0 I1Cent=           0 FoldK=F
 IRaf= 690000000 NMat=      72 IRICut=       1 DoRegI=T DoRafI=F ISym2E= 0 IDoP0=0 IntGTp=1.
 FoFCou: FMM=T IPFlag=           0 FMFlag=      100000 FMFlg1=        2001
         NFxFlg=           0 DoJE=F BraDBF=F KetDBF=F FulRan=T
         wScrn=  0.000000 ICntrl=         0 IOpCl=  0 I1Cent=           0 NGrid=           0
         NMat0=   72 NMatS0=     72 NMatT0=    0 NMatD0=   72 NMtDS0=    0 NMtDT0=    0
 Symmetry not used in FoFCou.
 FMM levels:  10  Number of levels for PrismC:   9
          There are   309 degrees of freedom in the 1st order CPHF.  IDoFFX=6 NUNeed=     0.
    306 vectors produced by pass  0 Test12= 1.82D-13 1.00D-09 XBig12= 2.08D-01 1.38D-01.
 AX will form    72 AO Fock derivatives at one time.
    303 vectors produced by pass  1 Test12= 1.82D-13 1.00D-09 XBig12= 1.38D-01 1.58D-01.
    303 vectors produced by pass  2 Test12= 1.82D-13 1.00D-09 XBig12= 3.47D-03 1.54D-02.
    303 vectors produced by pass  3 Test12= 1.82D-13 1.00D-09 XBig12= 3.10D-05 9.33D-04.
    303 vectors produced by pass  4 Test12= 1.82D-13 1.00D-09 XBig12= 2.51D-07 5.77D-05.
    303 vectors produced by pass  5 Test12= 1.82D-13 1.00D-09 XBig12= 1.04D-09 5.59D-06.
    184 vectors produced by pass  6 Test12= 1.82D-13 1.00D-09 XBig12= 3.73D-12 3.23D-07.
     15 vectors produced by pass  7 Test12= 1.82D-13 1.00D-09 XBig12= 1.36D-14 8.74D-09.
      1 vectors produced by pass  8 Test12= 1.82D-13 1.00D-09 XBig12= 1.40D-14 3.64D-09.
 InvSVY:  IOpt=1 It=  1 EMax= 5.00D-16
 Solved reduced A of dimension  2021 with   309 vectors.
 End of Minotr F.D. properties file   721 does not exist.
 End of Minotr F.D. properties file   722 does not exist.
 End of Minotr F.D. properties file   788 does not exist.
 Leave Link 1002 at Sat Oct 29 13:02:06 2022, MaxMem=  8053063680 cpu:           92656.7 elap:            5794.2
 (Enter /project/chenjingdan/g16/l601.exe)
 Copying SCF densities to generalized density rwf, IOpCl= 0 IROHF=0.
 Hyperfine terms turned off by default for NAtoms > 100.

 **********************************************************************

            Population analysis using the SCF Density.

 **********************************************************************

 Alpha  occ. eigenvalues --  -78.20113 -19.70734 -19.68730 -19.68203 -19.68185
 Alpha  occ. eigenvalues --  -19.67767 -19.67749 -19.66338 -19.62988 -19.60739
 Alpha  occ. eigenvalues --  -15.01750 -14.83947 -10.71304 -10.70960 -10.62762
 Alpha  occ. eigenvalues --  -10.61178 -10.61146 -10.60360 -10.59135 -10.59090
 Alpha  occ. eigenvalues --  -10.59000 -10.58908 -10.58714 -10.57246 -10.55769
 Alpha  occ. eigenvalues --  -10.55667 -10.55528 -10.55492 -10.55407 -10.55351
 Alpha  occ. eigenvalues --  -10.55213 -10.55170 -10.55160 -10.55154 -10.55143
 Alpha  occ. eigenvalues --  -10.55113 -10.54938 -10.54932 -10.54920 -10.54912
 Alpha  occ. eigenvalues --  -10.54892 -10.54828 -10.54698 -10.54632 -10.54591
 Alpha  occ. eigenvalues --  -10.54521 -10.54248 -10.53710 -10.53698 -10.53585
 Alpha  occ. eigenvalues --  -10.53429 -10.53213 -10.53095 -10.53051 -10.52686
 Alpha  occ. eigenvalues --  -10.52635 -10.52284  -6.98166  -5.09978  -5.09907
 Alpha  occ. eigenvalues --   -5.09825  -1.37232  -1.26377  -1.23220  -1.22589
 Alpha  occ. eigenvalues --   -1.18620  -1.17328  -1.15758  -1.12537  -1.08869
 Alpha  occ. eigenvalues --   -1.07737  -1.01042  -0.99609  -0.97286  -0.96296
 Alpha  occ. eigenvalues --   -0.95475  -0.93282  -0.92762  -0.90245  -0.89526
 Alpha  occ. eigenvalues --   -0.88098  -0.87644  -0.87035  -0.86828  -0.86598
 Alpha  occ. eigenvalues --   -0.85348  -0.83617  -0.82581  -0.81872  -0.81580
 Alpha  occ. eigenvalues --   -0.78956  -0.78316  -0.78117  -0.77988  -0.75956
 Alpha  occ. eigenvalues --   -0.75818  -0.75756  -0.75566  -0.75434  -0.73515
 Alpha  occ. eigenvalues --   -0.72022  -0.71261  -0.70523  -0.69927  -0.68853
 Alpha  occ. eigenvalues --   -0.68533  -0.67185  -0.67105  -0.66641  -0.65752
 Alpha  occ. eigenvalues --   -0.64420  -0.64031  -0.63883  -0.63456  -0.62942
 Alpha  occ. eigenvalues --   -0.62811  -0.61806  -0.61027  -0.60663  -0.60015
 Alpha  occ. eigenvalues --   -0.59524  -0.57631  -0.57164  -0.56726  -0.56378
 Alpha  occ. eigenvalues --   -0.56154  -0.55446  -0.55103  -0.54890  -0.54803
 Alpha  occ. eigenvalues --   -0.54745  -0.54224  -0.53870  -0.53303  -0.53038
 Alpha  occ. eigenvalues --   -0.52732  -0.52472  -0.51842  -0.51081  -0.50897
 Alpha  occ. eigenvalues --   -0.50733  -0.50084  -0.49386  -0.48684  -0.48603
 Alpha  occ. eigenvalues --   -0.48406  -0.48370  -0.48186  -0.47926  -0.47544
 Alpha  occ. eigenvalues --   -0.47355  -0.47051  -0.46907  -0.46590  -0.46548
 Alpha  occ. eigenvalues --   -0.46229  -0.46011  -0.45815  -0.45673  -0.45508
 Alpha  occ. eigenvalues --   -0.45360  -0.45060  -0.44991  -0.44878  -0.44744
 Alpha  occ. eigenvalues --   -0.44630  -0.44490  -0.44098  -0.43437  -0.43051
 Alpha  occ. eigenvalues --   -0.42967  -0.42655  -0.41881  -0.41608  -0.41333
 Alpha  occ. eigenvalues --   -0.41292  -0.41207  -0.41150  -0.40737  -0.40153
 Alpha  occ. eigenvalues --   -0.39582  -0.39423  -0.39026  -0.38911  -0.38797
 Alpha  occ. eigenvalues --   -0.38593  -0.38370  -0.38285  -0.38133  -0.38024
 Alpha  occ. eigenvalues --   -0.37825  -0.37617  -0.37360  -0.37309  -0.36823
 Alpha  occ. eigenvalues --   -0.36673  -0.36158  -0.34776  -0.33873  -0.29948
 Alpha  occ. eigenvalues --   -0.29655  -0.29321  -0.28402  -0.28089  -0.27729
 Alpha  occ. eigenvalues --   -0.27532  -0.26753  -0.26407
 Alpha virt. eigenvalues --   -0.06788  -0.00255  -0.00072   0.01907   0.02014
 Alpha virt. eigenvalues --    0.02798   0.03123   0.03788   0.04494   0.05141
 Alpha virt. eigenvalues --    0.05390   0.05616   0.07726   0.10186   0.10729
 Alpha virt. eigenvalues --    0.12372   0.12909   0.13973   0.14202   0.14430
 Alpha virt. eigenvalues --    0.14612   0.15062   0.15780   0.16004   0.16340
 Alpha virt. eigenvalues --    0.16771   0.17064   0.17529   0.17555   0.17843
 Alpha virt. eigenvalues --    0.18228   0.18279   0.18559   0.18628   0.18879
 Alpha virt. eigenvalues --    0.19038   0.19323   0.19501   0.19725   0.19758
 Alpha virt. eigenvalues --    0.19893   0.20535   0.20634   0.21088   0.21321
 Alpha virt. eigenvalues --    0.21426   0.21899   0.21985   0.22082   0.22351
 Alpha virt. eigenvalues --    0.22662   0.22916   0.23045   0.23199   0.23242
 Alpha virt. eigenvalues --    0.23769   0.23816   0.24116   0.24306   0.24356
 Alpha virt. eigenvalues --    0.24844   0.25294   0.25480   0.25749   0.25980
 Alpha virt. eigenvalues --    0.26079   0.26502   0.26994   0.27127   0.27695
 Alpha virt. eigenvalues --    0.28221   0.28291   0.28817   0.29123   0.29395
 Alpha virt. eigenvalues --    0.29524   0.29632   0.29834   0.30411   0.30705
 Alpha virt. eigenvalues --    0.31100   0.31428   0.31517   0.31717   0.32031
 Alpha virt. eigenvalues --    0.32377   0.32541   0.32697   0.33150   0.33393
 Alpha virt. eigenvalues --    0.34106   0.34324   0.34667   0.35620   0.36357
 Alpha virt. eigenvalues --    0.37485   0.37584   0.38034   0.38989   0.39385
 Alpha virt. eigenvalues --    0.39899   0.40558   0.40996   0.41480   0.41646
 Alpha virt. eigenvalues --    0.42287   0.42581   0.42967   0.43118   0.43544
 Alpha virt. eigenvalues --    0.43799   0.44150   0.44425   0.44592   0.45190
 Alpha virt. eigenvalues --    0.45664   0.46265   0.46694   0.47161   0.47874
 Alpha virt. eigenvalues --    0.48755   0.49563   0.50792   0.51420   0.52281
 Alpha virt. eigenvalues --    0.52854   0.52990   0.53536   0.53688   0.53900
 Alpha virt. eigenvalues --    0.54348   0.55065   0.55333   0.55781   0.55986
 Alpha virt. eigenvalues --    0.56133   0.56212   0.56609   0.56859   0.57222
 Alpha virt. eigenvalues --    0.57583   0.57873   0.58199   0.58260   0.58526
 Alpha virt. eigenvalues --    0.58735   0.59415   0.59714   0.59877   0.60230
 Alpha virt. eigenvalues --    0.60461   0.60855   0.61084   0.61312   0.61594
 Alpha virt. eigenvalues --    0.61908   0.61991   0.62238   0.62589   0.62927
 Alpha virt. eigenvalues --    0.63115   0.63266   0.63510   0.63719   0.63917
 Alpha virt. eigenvalues --    0.64444   0.64800   0.65166   0.65301   0.65435
 Alpha virt. eigenvalues --    0.65535   0.65829   0.66149   0.66328   0.66972
 Alpha virt. eigenvalues --    0.67399   0.67525   0.67793   0.68285   0.68587
 Alpha virt. eigenvalues --    0.68827   0.69203   0.69372   0.69483   0.70407
 Alpha virt. eigenvalues --    0.70734   0.71034   0.71373   0.71832   0.71869
 Alpha virt. eigenvalues --    0.72827   0.73379   0.73708   0.73928   0.74126
 Alpha virt. eigenvalues --    0.74858   0.74991   0.75240   0.75557   0.76161
 Alpha virt. eigenvalues --    0.76664   0.77067   0.77442   0.77728   0.78072
 Alpha virt. eigenvalues --    0.78330   0.78868   0.79044   0.79243   0.79432
 Alpha virt. eigenvalues --    0.79936   0.80058   0.80427   0.80746   0.81377
 Alpha virt. eigenvalues --    0.81746   0.81838   0.82062   0.82405   0.82991
 Alpha virt. eigenvalues --    0.83292   0.83486   0.83703   0.83838   0.84125
 Alpha virt. eigenvalues --    0.84562   0.84861   0.85189   0.85320   0.85691
 Alpha virt. eigenvalues --    0.85892   0.86381   0.86905   0.87340   0.87549
 Alpha virt. eigenvalues --    0.87842   0.88194   0.88381   0.88640   0.88858
 Alpha virt. eigenvalues --    0.89008   0.89115   0.89271   0.89801   0.89922
 Alpha virt. eigenvalues --    0.89984   0.90342   0.90461   0.90979   0.91674
 Alpha virt. eigenvalues --    0.92290   0.92317   0.92638   0.92727   0.93052
 Alpha virt. eigenvalues --    0.93371   0.93564   0.94133   0.94404   0.94725
 Alpha virt. eigenvalues --    0.95036   0.95216   0.95599   0.95788   0.96054
 Alpha virt. eigenvalues --    0.96207   0.96681   0.96990   0.97296   0.97475
 Alpha virt. eigenvalues --    0.97599   0.97864   0.98178   0.98492   0.98652
 Alpha virt. eigenvalues --    0.98774   0.99221   0.99638   0.99704   1.00126
 Alpha virt. eigenvalues --    1.00320   1.00819   1.00920   1.01678   1.01980
 Alpha virt. eigenvalues --    1.02255   1.02646   1.02823   1.03056   1.03725
 Alpha virt. eigenvalues --    1.03912   1.04127   1.04655   1.04977   1.05181
 Alpha virt. eigenvalues --    1.05843   1.06406   1.06489   1.07142   1.07197
 Alpha virt. eigenvalues --    1.07837   1.08212   1.08752   1.09039   1.09470
 Alpha virt. eigenvalues --    1.09673   1.09904   1.10105   1.10586   1.11012
 Alpha virt. eigenvalues --    1.11647   1.11714   1.12037   1.12703   1.12842
 Alpha virt. eigenvalues --    1.13372   1.13634   1.14497   1.15164   1.15413
 Alpha virt. eigenvalues --    1.15758   1.16339   1.16882   1.18227   1.19006
 Alpha virt. eigenvalues --    1.19359   1.19643   1.19836   1.20297   1.20853
 Alpha virt. eigenvalues --    1.21480   1.21848   1.22027   1.23334   1.23371
 Alpha virt. eigenvalues --    1.24124   1.24393   1.24904   1.24979   1.25402
 Alpha virt. eigenvalues --    1.26099   1.26546   1.27032   1.27437   1.27799
 Alpha virt. eigenvalues --    1.28025   1.28512   1.28876   1.29892   1.30113
 Alpha virt. eigenvalues --    1.30508   1.30636   1.31060   1.31815   1.32390
 Alpha virt. eigenvalues --    1.32910   1.33005   1.33503   1.34210   1.34371
 Alpha virt. eigenvalues --    1.34678   1.35282   1.35707   1.36379   1.36563
 Alpha virt. eigenvalues --    1.37031   1.37703   1.37894   1.38313   1.38898
 Alpha virt. eigenvalues --    1.39356   1.39752   1.40138   1.40305   1.41050
 Alpha virt. eigenvalues --    1.41243   1.41672   1.41992   1.42167   1.42764
 Alpha virt. eigenvalues --    1.43098   1.43673   1.43821   1.44263   1.44720
 Alpha virt. eigenvalues --    1.45338   1.45495   1.45620   1.46056   1.46625
 Alpha virt. eigenvalues --    1.46926   1.47132   1.47761   1.48068   1.48415
 Alpha virt. eigenvalues --    1.49118   1.49657   1.50441   1.51038   1.51523
 Alpha virt. eigenvalues --    1.52753   1.52944   1.53355   1.53934   1.54436
 Alpha virt. eigenvalues --    1.55745   1.55926   1.56597   1.57146   1.58104
 Alpha virt. eigenvalues --    1.58705   1.59680   1.60289   1.60704   1.61266
 Alpha virt. eigenvalues --    1.62741   1.63490   1.64658   1.65061   1.66279
 Alpha virt. eigenvalues --    1.66602   1.66783   1.68828   1.68909   1.70736
 Alpha virt. eigenvalues --    1.71395   1.71527   1.72421   1.72893   1.73127
 Alpha virt. eigenvalues --    1.73577   1.74181   1.74553   1.74802   1.75058
 Alpha virt. eigenvalues --    1.75896   1.76634   1.76801   1.77152   1.77436
 Alpha virt. eigenvalues --    1.77771   1.78275   1.78388   1.79133   1.79460
 Alpha virt. eigenvalues --    1.79942   1.80014   1.80585   1.81195   1.81358
 Alpha virt. eigenvalues --    1.81572   1.82046   1.82240   1.82494   1.82614
 Alpha virt. eigenvalues --    1.82858   1.83137   1.83819   1.84207   1.84246
 Alpha virt. eigenvalues --    1.84444   1.84893   1.85462   1.85693   1.85749
 Alpha virt. eigenvalues --    1.86013   1.86387   1.86765   1.86827   1.87173
 Alpha virt. eigenvalues --    1.87570   1.87952   1.88341   1.88519   1.88695
 Alpha virt. eigenvalues --    1.89505   1.89932   1.90180   1.90299   1.90453
 Alpha virt. eigenvalues --    1.90958   1.91527   1.91967   1.92015   1.92250
 Alpha virt. eigenvalues --    1.92705   1.93079   1.93478   1.93740   1.94302
 Alpha virt. eigenvalues --    1.94702   1.95033   1.95354   1.95579   1.95965
 Alpha virt. eigenvalues --    1.96282   1.97302   1.97568   1.97981   1.98365
 Alpha virt. eigenvalues --    1.98406   1.98943   1.99668   1.99823   2.00333
 Alpha virt. eigenvalues --    2.00617   2.01018   2.01309   2.01548   2.02327
 Alpha virt. eigenvalues --    2.02634   2.03519   2.03891   2.04064   2.04647
 Alpha virt. eigenvalues --    2.04824   2.05251   2.05430   2.06204   2.06684
 Alpha virt. eigenvalues --    2.07002   2.07272   2.07755   2.08108   2.08379
 Alpha virt. eigenvalues --    2.08710   2.08875   2.09585   2.09651   2.09683
 Alpha virt. eigenvalues --    2.09998   2.10277   2.10569   2.10956   2.11295
 Alpha virt. eigenvalues --    2.11748   2.12016   2.12443   2.12633   2.12825
 Alpha virt. eigenvalues --    2.13297   2.13361   2.13762   2.14166   2.14661
 Alpha virt. eigenvalues --    2.14989   2.15127   2.15255   2.15699   2.15943
 Alpha virt. eigenvalues --    2.16062   2.16098   2.16953   2.17211   2.17571
 Alpha virt. eigenvalues --    2.17752   2.17858   2.18386   2.18577   2.18724
 Alpha virt. eigenvalues --    2.18874   2.19265   2.19556   2.19891   2.20062
 Alpha virt. eigenvalues --    2.20849   2.21079   2.21275   2.21724   2.22358
 Alpha virt. eigenvalues --    2.22773   2.23744   2.24138   2.24994   2.25197
 Alpha virt. eigenvalues --    2.25303   2.25896   2.26156   2.26591   2.26865
 Alpha virt. eigenvalues --    2.27321   2.27772   2.28236   2.28522   2.29100
 Alpha virt. eigenvalues --    2.29473   2.29957   2.30851   2.31167   2.31538
 Alpha virt. eigenvalues --    2.31864   2.32242   2.32921   2.32972   2.33444
 Alpha virt. eigenvalues --    2.34573   2.35136   2.35380   2.35825   2.35941
 Alpha virt. eigenvalues --    2.36975   2.37670   2.38170   2.39335   2.39387
 Alpha virt. eigenvalues --    2.40374   2.40609   2.40977   2.41280   2.41426
 Alpha virt. eigenvalues --    2.41722   2.42076   2.42257   2.42635   2.42808
 Alpha virt. eigenvalues --    2.43056   2.43514   2.43911   2.44252   2.44414
 Alpha virt. eigenvalues --    2.44692   2.45635   2.45849   2.46311   2.46907
 Alpha virt. eigenvalues --    2.47062   2.47342   2.47438   2.47799   2.48468
 Alpha virt. eigenvalues --    2.48883   2.49362   2.49681   2.50099   2.50507
 Alpha virt. eigenvalues --    2.51407   2.51633   2.52324   2.52527   2.52642
 Alpha virt. eigenvalues --    2.53573   2.54102   2.54410   2.54749   2.55644
 Alpha virt. eigenvalues --    2.56017   2.56183   2.56705   2.57526   2.57865
 Alpha virt. eigenvalues --    2.58492   2.58954   2.59506   2.59604   2.59796
 Alpha virt. eigenvalues --    2.60311   2.60578   2.60735   2.61664   2.62065
 Alpha virt. eigenvalues --    2.62441   2.62576   2.62841   2.63275   2.63718
 Alpha virt. eigenvalues --    2.64227   2.64619   2.64869   2.65476   2.65667
 Alpha virt. eigenvalues --    2.66263   2.66503   2.66624   2.67329   2.67982
 Alpha virt. eigenvalues --    2.68516   2.68702   2.68837   2.69127   2.69827
 Alpha virt. eigenvalues --    2.70096   2.70391   2.70860   2.71346   2.71558
 Alpha virt. eigenvalues --    2.72165   2.72369   2.72470   2.73180   2.73381
 Alpha virt. eigenvalues --    2.73623   2.74227   2.75055   2.75194   2.75526
 Alpha virt. eigenvalues --    2.75778   2.76127   2.76939   2.78025   2.78354
 Alpha virt. eigenvalues --    2.79163   2.79623   2.79998   2.80188   2.81048
 Alpha virt. eigenvalues --    2.81137   2.81449   2.81893   2.82194   2.82524
 Alpha virt. eigenvalues --    2.83121   2.83376   2.83679   2.83761   2.84248
 Alpha virt. eigenvalues --    2.84986   2.85165   2.85898   2.86782   2.87007
 Alpha virt. eigenvalues --    2.87356   2.88014   2.88496   2.88682   2.88860
 Alpha virt. eigenvalues --    2.89096   2.89286   2.89931   2.90252   2.90338
 Alpha virt. eigenvalues --    2.90782   2.91658   2.91737   2.92043   2.92558
 Alpha virt. eigenvalues --    2.93173   2.94141   2.94790   2.94883   2.95287
 Alpha virt. eigenvalues --    2.96440   2.98329   2.98989   3.00209   3.02128
 Alpha virt. eigenvalues --    3.02573   3.02762   3.03539   3.04200   3.04586
 Alpha virt. eigenvalues --    3.05334   3.07449   3.09453   3.09741   3.10065
 Alpha virt. eigenvalues --    3.10477   3.10938   3.13596   3.14740   3.15435
 Alpha virt. eigenvalues --    3.17487   3.17888   3.18848   3.19769   3.21058
 Alpha virt. eigenvalues --    3.21594   3.21857   3.22047   3.22427   3.22459
 Alpha virt. eigenvalues --    3.22976   3.23806   3.24626   3.25022   3.26038
 Alpha virt. eigenvalues --    3.26638   3.27374   3.27481   3.28533   3.29929
 Alpha virt. eigenvalues --    3.29971   3.31085   3.31138   3.32150   3.32443
 Alpha virt. eigenvalues --    3.34232   3.35636   3.37417   3.38342   3.41002
 Alpha virt. eigenvalues --    3.41077   3.41425   3.43188   3.43546   3.44761
 Alpha virt. eigenvalues --    3.44828   3.45044   3.45275   3.45533   3.45903
 Alpha virt. eigenvalues --    3.45995   3.46268   3.46696   3.47423   3.47790
 Alpha virt. eigenvalues --    3.48202   3.48726   3.49649   3.50162   3.51037
 Alpha virt. eigenvalues --    3.51433   3.53494   3.58391   3.63569   3.65307
 Alpha virt. eigenvalues --    3.69007   3.69254   3.74324   3.74854   3.77196
 Alpha virt. eigenvalues --    3.80942   3.95100   4.03843   4.04628   4.06951
 Alpha virt. eigenvalues --    4.10163   4.14758   4.16853   4.17269   4.17954
 Alpha virt. eigenvalues --    4.18236   4.20038   4.21047   4.23549   4.23918
 Alpha virt. eigenvalues --    4.24912   4.26244   4.26340   4.26639   4.30433
 Alpha virt. eigenvalues --    4.32165   4.34486   4.35452   4.36066   4.37952
 Alpha virt. eigenvalues --    4.40250   4.41105   4.42451   4.43357   4.43569
 Alpha virt. eigenvalues --    4.44756   4.47484   4.47791   4.49576   4.50662
 Alpha virt. eigenvalues --    4.52082   4.52933   4.54472   4.55924   4.58080
 Alpha virt. eigenvalues --    4.59074   4.61070   4.61941   4.62788   4.63400
 Alpha virt. eigenvalues --    4.64191   4.65217   4.72365   4.83299   4.84392
 Alpha virt. eigenvalues --    4.86478   4.87580   4.88983   4.90116   4.96840
 Alpha virt. eigenvalues --    5.00350
          Condensed to atoms (all electrons):
 Mulliken charges:
               1
     1  O   -0.512402
     2  N   -0.555518
     3  O   -0.614754
     4  O   -0.588216
     5  C   -0.339159
     6  N    0.422319
     7  C    0.202556
     8  C    0.648467
     9  C    0.025516
    10  C   -0.172130
    11  C    0.624482
    12  C   -0.113939
    13  C   -0.118446
    14  C   -0.131420
    15  C   -0.125935
    16  O   -0.402135
    17  O   -0.399388
    18  H    0.359985
    19  H    0.363080
    20  H    0.452331
    21  H    0.127027
    22  H    0.156390
    23  H    0.161890
    24  H    0.177391
    25  H    0.183920
    26  H    0.168433
    27  H    0.187861
    28  O   -0.643033
    29  O   -0.622999
    30  C   -0.408051
    31  O   -0.640993
    32  C   -0.410587
    33  C   -0.403224
    34  O   -0.679520
    35  C   -0.401373
    36  C   -0.407125
    37  C   -0.393496
    38  C   -0.207915
    39  C    0.137231
    40  C   -0.149595
    41  C   -0.198153
    42  C    0.100518
    43  C    0.133392
    44  C   -0.060504
    45  C    0.217875
    46  C   -0.144600
    47  C    0.104620
    48  C   -0.211313
    49  C    0.122590
    50  C    0.028278
    51  C   -0.148564
    52  C   -0.000954
    53  C    0.215456
    54  C   -0.266842
    55  C   -0.004006
    56  C   -0.149389
    57  C   -0.054652
    58  C    0.030487
    59  C   -0.194698
    60  C   -0.142276
    61  C    0.100649
    62  C   -0.207457
    63  C    0.090767
    64  C    0.092424
    65  C   -0.210701
    66  C   -0.266698
    67  P    1.324422
    68  H    0.394797
    69  H    0.137446
    70  H    0.131124
    71  H    0.129606
    72  H    0.119263
    73  H    0.133084
    74  H    0.162721
    75  H    0.135216
    76  H    0.116380
    77  H    0.142569
    78  H    0.111505
    79  H    0.128624
    80  H    0.167453
    81  H    0.147430
    82  H    0.121863
    83  H    0.139670
    84  H    0.122719
    85  H    0.162701
    86  H    0.114430
    87  H    0.095755
    88  H    0.119330
    89  H    0.096966
    90  H    0.137976
    91  H    0.114745
    92  H    0.126193
    93  H    0.136968
    94  H    0.133465
    95  H    0.118886
    96  H    0.090409
    97  H    0.124804
    98  H    0.106896
    99  H    0.115068
   100  H    0.134837
   101  H    0.137172
   102  H    0.133733
 Sum of Mulliken charges =  -0.00000
 Mulliken charges with hydrogens summed into heavy atoms:
               1
     1  O   -0.152417
     2  N   -0.192438
     3  O   -0.614754
     4  O   -0.135885
     5  C    0.106148
     6  N    0.422319
     7  C    0.202556
     8  C    0.648467
     9  C    0.025516
    10  C   -0.172130
    11  C    0.624482
    12  C    0.063452
    13  C    0.065474
    14  C    0.037012
    15  C    0.061926
    16  O   -0.402135
    17  O   -0.399388
    28  O   -0.248236
    29  O   -0.622999
    30  C   -0.009875
    31  O   -0.640993
    32  C    0.004482
    33  C   -0.009059
    34  O   -0.679520
    35  C    0.006209
    36  C    0.001838
    37  C    0.006354
    38  C   -0.112160
    39  C    0.137231
    40  C   -0.030265
    41  C   -0.101187
    42  C    0.100518
    43  C    0.133392
    44  C   -0.060504
    45  C    0.217875
    46  C   -0.144600
    47  C    0.104620
    48  C    0.041408
    49  C    0.122590
    50  C    0.028278
    51  C   -0.022371
    52  C   -0.000954
    53  C    0.215456
    54  C    0.003591
    55  C   -0.004006
    56  C   -0.030503
    57  C   -0.054652
    58  C    0.030487
    59  C   -0.104289
    60  C   -0.017472
    61  C    0.100649
    62  C   -0.100561
    63  C    0.090767
    64  C    0.092424
    65  C    0.039205
    66  C    0.004206
    67  P    1.324422
 APT charges:
               1
     1  O   -0.977890
     2  N   -0.335287
     3  O    0.004671
     4  O    0.044008
     5  C   -1.264842
     6  N   -0.601612
     7  C    0.589445
     8  C   -0.093738
     9  C   -0.488524
    10  C   -0.390717
    11  C    0.004127
    12  C   -0.626304
    13  C   -0.485698
    14  C   -0.406872
    15  C   -0.456907
    16  O    0.564845
    17  O   -0.205280
    18  H    1.273905
    19  H    0.081365
    20  H    0.405401
    21  H    0.677079
    22  H    0.554289
    23  H    0.037287
    24  H   -0.107631
    25  H    1.294860
    26  H    0.822546
    27  H    0.292539
    28  O   -0.404757
    29  O   -0.232242
    30  C   -1.593599
    31  O   -0.422308
    32  C   -1.186479
    33  C   -1.553305
    34  O   -0.607950
    35  C   -1.135646
    36  C   -1.086774
    37  C   -0.936757
    38  C   -0.492608
    39  C   -0.249341
    40  C   -0.452120
    41  C   -0.403539
    42  C    0.398329
    43  C   -0.184271
    44  C   -0.532476
    45  C   -0.330758
    46  C   -0.043711
    47  C   -0.128789
    48  C   -1.017001
    49  C   -0.359546
    50  C    0.263748
    51  C   -0.440188
    52  C   -0.496660
    53  C   -0.401885
    54  C   -1.582377
    55  C   -0.360986
    56  C   -0.459752
    57  C   -0.481303
    58  C    0.445851
    59  C   -0.487306
    60  C   -0.438239
    61  C   -0.261684
    62  C   -0.469841
    63  C   -0.142497
    64  C    0.379531
    65  C   -0.660693
    66  C   -1.602276
    67  P    0.617544
    68  H    0.320490
    69  H    0.050709
    70  H    0.944337
    71  H    0.705077
    72  H    0.878948
    73  H    0.537539
    74  H   -0.138727
    75  H    0.278397
    76  H    0.453931
    77  H    0.916084
    78  H    0.448347
    79  H    0.762318
    80  H   -0.007913
    81  H   -0.031573
    82  H    0.655096
    83  H    0.536583
    84  H    0.717829
    85  H   -0.185641
    86  H    0.464136
    87  H    0.541368
    88  H    1.051665
    89  H    0.790274
    90  H    0.158885
    91  H    0.842629
    92  H    0.828340
    93  H    0.761469
    94  H    0.768869
    95  H    1.075092
    96  H    0.572733
    97  H    0.722395
    98  H    0.654868
    99  H    0.788350
   100  H   -0.029589
   101  H    0.595207
   102  H    0.901077
 Sum of APT charges =  -0.00000
 APT charges with hydrogens summed into heavy atoms:
               1
     1  O    0.296015
     2  N   -0.253922
     3  O    0.004671
     4  O    0.449409
     5  C    0.003813
     6  N   -0.601612
     7  C    0.589445
     8  C   -0.093738
     9  C   -0.488524
    10  C   -0.390717
    11  C    0.004127
    12  C   -0.733936
    13  C    0.809162
    14  C    0.415674
    15  C   -0.164368
    16  O    0.564845
    17  O   -0.205280
    28  O   -0.084267
    29  O   -0.232242
    30  C    0.106523
    31  O   -0.422308
    32  C    0.091280
    33  C    0.095108
    34  O   -0.607950
    35  C    0.067106
    36  C    0.073331
    37  C    0.059567
    38  C    0.048760
    39  C   -0.249341
    40  C    0.599545
    41  C    0.386735
    42  C    0.398329
    43  C   -0.184271
    44  C   -0.532476
    45  C   -0.330758
    46  C   -0.043711
    47  C   -0.128789
    48  C   -0.015487
    49  C   -0.359546
    50  C    0.263748
    51  C    0.388152
    52  C   -0.496660
    53  C   -0.401885
    54  C   -0.052039
    55  C   -0.360986
    56  C    0.615339
    57  C   -0.481303
    58  C    0.445851
    59  C    0.085427
    60  C    0.284156
    61  C   -0.261684
    62  C    0.185027
    63  C   -0.142497
    64  C    0.379531
    65  C    0.098067
    66  C   -0.105993
    67  P    0.617544
 Electronic spatial extent (au):  <R**2>=          32866.8060
 Charge=             -0.0000 electrons
 Dipole moment (field-independent basis, Debye):
    X=             -1.2997    Y=              1.3545    Z=             -3.6216  Tot=              4.0792
 Quadrupole moment (field-independent basis, Debye-Ang):
   XX=           -337.0547   YY=           -315.9117   ZZ=           -338.2643
   XY=             24.3962   XZ=            -18.8600   YZ=             -0.6416
 Traceless Quadrupole moment (field-independent basis, Debye-Ang):
   XX=             -6.6445   YY=             14.4986   ZZ=             -7.8541
   XY=             24.3962   XZ=            -18.8600   YZ=             -0.6416
 Octapole moment (field-independent basis, Debye-Ang**2):
  XXX=            -10.1223  YYY=             43.7397  ZZZ=           -186.8880  XYY=            -29.4264
  XXY=             18.4400  XXZ=            -90.1481  XZZ=           -102.8727  YZZ=             68.5556
  YYZ=            -54.8177  XYZ=             38.9209
 Hexadecapole moment (field-independent basis, Debye-Ang**3):
 XXXX=         -21588.7229 YYYY=         -13251.0474 ZZZZ=          -9267.9269 XXXY=            534.7440
 XXXZ=           -450.4006 YYYX=            250.0901 YYYZ=           -192.5968 ZZZX=           -708.4206
 ZZZY=           -156.6144 XXYY=          -5744.9327 XXZZ=          -5615.7967 YYZZ=          -3592.7388
 XXYZ=             51.3863 YYXZ=             54.0356 ZZXY=            330.3192
 N-N= 9.247048193959D+03 E-N=-2.518666894962D+04  KE= 2.846336327795D+03
  Exact polarizability:       0.000       0.000       0.000       0.000       0.000       0.000
 Approx polarizability:     682.775      70.814     625.621      10.391     -60.704     670.782
 Leave Link  601 at Sat Oct 29 13:02:07 2022, MaxMem=  8053063680 cpu:               8.6 elap:               0.8
 (Enter /project/chenjingdan/g16/l701.exe)
 ... and contract with generalized density number  0.
 Compute integral second derivatives.
 Leave Link  701 at Sat Oct 29 13:02:08 2022, MaxMem=  8053063680 cpu:              15.5 elap:               1.6
 (Enter /project/chenjingdan/g16/l702.exe)
 L702 exits ... SP integral derivatives will be done elsewhere.
 Leave Link  702 at Sat Oct 29 13:02:09 2022, MaxMem=  8053063680 cpu:               0.5 elap:               0.1
 (Enter /project/chenjingdan/g16/l703.exe)
 Integral derivatives from FoFJK, PRISM(SPDF).
 Compute integral second derivatives, UseDBF=F ICtDFT=           0.
 Calling FoFJK, ICntrl=    100127 FMM=F ISym2X=0 I1Cent= 0 IOpClX= 0 NMat=1 NMatS=1 NMatT=0.
 FoFJK:  IHMeth= 1 ICntrl=  100127 DoSepK=F KAlg= 0 I1Cent=           0 FoldK=F
 IRaf=         0 NMat=       1 IRICut=       1 DoRegI=T DoRafI=F ISym2E= 0 IDoP0=0 IntGTp=1.
 FoFCou: FMM=F IPFlag=           0 FMFlag=      100000 FMFlg1=        2800
         NFxFlg=           0 DoJE=F BraDBF=F KetDBF=F FulRan=T
         wScrn=  0.000000 ICntrl=    100127 IOpCl=  0 I1Cent=           0 NGrid=           0
         NMat0=    1 NMatS0=      1 NMatT0=    0 NMatD0=    1 NMtDS0=    0 NMtDT0=    0
 Symmetry not used in FoFCou.
 Leave Link  703 at Sat Oct 29 13:27:29 2022, MaxMem=  8053063680 cpu:           24292.9 elap:            1520.3
 (Enter /project/chenjingdan/g16/l716.exe)
 Dipole        =-5.11332065D-01 5.32906990D-01-1.42485100D+00
 Polarizability= 0.00000000D+00 0.00000000D+00 0.00000000D+00
                 0.00000000D+00 0.00000000D+00 0.00000000D+00
 -------------------------------------------------------------------
 Center     Atomic                   Forces (Hartrees/Bohr)
 Number     Number              X              Y              Z
 -------------------------------------------------------------------
      1        8           0.000001645    0.000000533   -0.000000745
      2        7          -0.000011228    0.000006748    0.000001290
      3        8           0.000005331    0.000000982    0.000002246
      4        8           0.000001796   -0.000002332   -0.000001971
      5        6          -0.000004773   -0.000001799   -0.000005142
      6        7          -0.000006484   -0.000010533    0.000005596
      7        6           0.000011963    0.000002684   -0.000005921
      8        6          -0.000007533    0.000001493   -0.000003843
      9        6          -0.000004149   -0.000003376   -0.000000189
     10        6           0.000007831    0.000000281    0.000009128
     11        6           0.000005158    0.000002603    0.000003611
     12        6           0.000003809    0.000000981   -0.000001396
     13        6          -0.000001737   -0.000004450   -0.000000358
     14        6          -0.000002970   -0.000005308    0.000002506
     15        6          -0.000007336   -0.000003600   -0.000000660
     16        8          -0.000000469   -0.000001787   -0.000003280
     17        8           0.000010437    0.000004965   -0.000008887
     18        1          -0.000003890    0.000002217    0.000005484
     19        1           0.000005832   -0.000001424    0.000003487
     20        1          -0.000002726    0.000000935   -0.000006245
     21        1           0.000000446    0.000000861    0.000002028
     22        1           0.000002715    0.000000707    0.000003748
     23        1          -0.000000540   -0.000000836    0.000004784
     24        1           0.000002820   -0.000001071    0.000000037
     25        1           0.000001454   -0.000001621   -0.000002313
     26        1           0.000003606    0.000001520   -0.000003385
     27        1           0.000002961    0.000000269   -0.000003238
     28        8           0.000002219   -0.000000118   -0.000016451
     29        8           0.000006799    0.000001775    0.000000328
     30        6          -0.000005052   -0.000004935    0.000000631
     31        8          -0.000000496    0.000002398   -0.000001004
     32        6          -0.000002809    0.000003995    0.000002664
     33        6           0.000000702   -0.000007198   -0.000003390
     34        8           0.000009586    0.000006391   -0.000000271
     35        6           0.000000224   -0.000002808    0.000005917
     36        6           0.000000713    0.000000367   -0.000007162
     37        6          -0.000005963   -0.000001723    0.000000910
[...]
 Alpha virt. eigenvalues --    0.88063   0.88280   0.88435   0.88549   0.89132
 Alpha virt. eigenvalues --    0.89290   0.89382   0.89650   0.89851   0.90120
 Alpha virt. eigenvalues --    0.90289   0.90574   0.90991   0.91514   0.91589
 Alpha virt. eigenvalues --    0.91830   0.92299   0.92780   0.92976   0.93419
 Alpha virt. eigenvalues --    0.93582   0.93868   0.94121   0.94408   0.95162
 Alpha virt. eigenvalues --    0.95499   0.95728   0.95810   0.95864   0.96066
 Alpha virt. eigenvalues --    0.96603   0.96881   0.97209   0.97404   0.97570
 Alpha virt. eigenvalues --    0.97913   0.98049   0.98175   0.98774   0.98783
 Alpha virt. eigenvalues --    0.99109   0.99189   0.99583   0.99811   1.00096
 Alpha virt. eigenvalues --    1.00604   1.00700   1.00994   1.01375   1.01949
 Alpha virt. eigenvalues --    1.02412   1.02633   1.03187   1.03268   1.03491
 Alpha virt. eigenvalues --    1.03864   1.03994   1.04257   1.04903   1.05483
 Alpha virt. eigenvalues --    1.05579   1.06432   1.06658   1.07234   1.07427
 Alpha virt. eigenvalues --    1.07821   1.08017   1.08691   1.08984   1.09212
 Alpha virt. eigenvalues --    1.10004   1.10355   1.10598   1.10958   1.11164
 Alpha virt. eigenvalues --    1.11561   1.11920   1.12470   1.12934   1.13480
 Alpha virt. eigenvalues --    1.13671   1.13890   1.14799   1.15248   1.15424
 Alpha virt. eigenvalues --    1.16415   1.16594   1.16967   1.18299   1.18662
 Alpha virt. eigenvalues --    1.19530   1.19701   1.20340   1.21168   1.21608
 Alpha virt. eigenvalues --    1.21706   1.22120   1.22818   1.23296   1.23839
 Alpha virt. eigenvalues --    1.24144   1.24632   1.25143   1.25176   1.25772
 Alpha virt. eigenvalues --    1.25968   1.26829   1.27264   1.27949   1.28112
 Alpha virt. eigenvalues --    1.28582   1.29046   1.29538   1.30225   1.30481
 Alpha virt. eigenvalues --    1.30679   1.31065   1.31536   1.31676   1.31930
 Alpha virt. eigenvalues --    1.32813   1.33226   1.33548   1.33695   1.34377
 Alpha virt. eigenvalues --    1.34787   1.35204   1.35775   1.36462   1.36764
 Alpha virt. eigenvalues --    1.37124   1.37367   1.37860   1.38075   1.38636
 Alpha virt. eigenvalues --    1.39030   1.40067   1.40272   1.40554   1.40800
 Alpha virt. eigenvalues --    1.41268   1.41552   1.41928   1.42418   1.42614
 Alpha virt. eigenvalues --    1.43180   1.43743   1.44050   1.44536   1.44777
 Alpha virt. eigenvalues --    1.45122   1.45659   1.46234   1.46465   1.46856
 Alpha virt. eigenvalues --    1.47307   1.47384   1.47842   1.48069   1.48132
 Alpha virt. eigenvalues --    1.49527   1.50240   1.50595   1.51473   1.51863
 Alpha virt. eigenvalues --    1.52233   1.53434   1.53840   1.53936   1.54835
 Alpha virt. eigenvalues --    1.55283   1.56373   1.56819   1.57291   1.57752
 Alpha virt. eigenvalues --    1.58294   1.59125   1.60246   1.61694   1.61820
 Alpha virt. eigenvalues --    1.63014   1.63570   1.64711   1.65020   1.66520
 Alpha virt. eigenvalues --    1.66975   1.67289   1.68512   1.69327   1.70242
 Alpha virt. eigenvalues --    1.71372   1.72032   1.72372   1.73003   1.73216
 Alpha virt. eigenvalues --    1.73959   1.74356   1.74567   1.74781   1.75240
 Alpha virt. eigenvalues --    1.75793   1.76218   1.76935   1.77438   1.77784
 Alpha virt. eigenvalues --    1.78154   1.78435   1.78868   1.79177   1.79771
 Alpha virt. eigenvalues --    1.80148   1.80248   1.80734   1.80884   1.81452
 Alpha virt. eigenvalues --    1.81704   1.82063   1.82137   1.82496   1.82866
 Alpha virt. eigenvalues --    1.83344   1.83737   1.83769   1.84283   1.84384
 Alpha virt. eigenvalues --    1.84771   1.85160   1.85520   1.85623   1.85731
 Alpha virt. eigenvalues --    1.85932   1.86344   1.86597   1.86966   1.87303
 Alpha virt. eigenvalues --    1.87882   1.88130   1.88520   1.88733   1.89167
 Alpha virt. eigenvalues --    1.89563   1.90121   1.90495   1.90783   1.90948
 Alpha virt. eigenvalues --    1.91498   1.91630   1.91951   1.92354   1.92566
 Alpha virt. eigenvalues --    1.93033   1.93293   1.93765   1.94174   1.94605
 Alpha virt. eigenvalues --    1.94688   1.95155   1.95829   1.96138   1.96428
 Alpha virt. eigenvalues --    1.96631   1.96887   1.97258   1.97642   1.97935
 Alpha virt. eigenvalues --    1.98506   1.98792   1.99094   2.00035   2.00218
 Alpha virt. eigenvalues --    2.00683   2.01029   2.01308   2.01584   2.02048
 Alpha virt. eigenvalues --    2.02886   2.03200   2.03577   2.04744   2.05249
 Alpha virt. eigenvalues --    2.05601   2.05643   2.05879   2.06053   2.07092
 Alpha virt. eigenvalues --    2.07412   2.07535   2.07663   2.08231   2.08430
 Alpha virt. eigenvalues --    2.08668   2.08941   2.09290   2.09556   2.09747
 Alpha virt. eigenvalues --    2.10004   2.10146   2.10361   2.10785   2.11149
 Alpha virt. eigenvalues --    2.11617   2.12134   2.12349   2.12833   2.13039
 Alpha virt. eigenvalues --    2.13538   2.13885   2.14093   2.14298   2.14463
 Alpha virt. eigenvalues --    2.14869   2.15216   2.15401   2.16020   2.16202
 Alpha virt. eigenvalues --    2.16431   2.16601   2.16746   2.17417   2.17449
 Alpha virt. eigenvalues --    2.17970   2.18208   2.18521   2.18672   2.18721
 Alpha virt. eigenvalues --    2.19115   2.19489   2.19827   2.20117   2.20517
 Alpha virt. eigenvalues --    2.20930   2.21085   2.21627   2.21953   2.22476
 Alpha virt. eigenvalues --    2.23010   2.23267   2.24716   2.25342   2.25434
 Alpha virt. eigenvalues --    2.25549   2.25815   2.26458   2.26515   2.26952
 Alpha virt. eigenvalues --    2.27756   2.27851   2.28261   2.28640   2.28932
 Alpha virt. eigenvalues --    2.29385   2.30257   2.30751   2.31169   2.31671
 Alpha virt. eigenvalues --    2.31824   2.32158   2.32718   2.32854   2.33178
 Alpha virt. eigenvalues --    2.33737   2.34306   2.35222   2.36165   2.36891
 Alpha virt. eigenvalues --    2.37197   2.37687   2.37823   2.38378   2.39452
 Alpha virt. eigenvalues --    2.39702   2.40746   2.40855   2.41363   2.41855
 Alpha virt. eigenvalues --    2.41925   2.42167   2.42422   2.42653   2.42827
 Alpha virt. eigenvalues --    2.43135   2.43570   2.43936   2.44259   2.44379
 Alpha virt. eigenvalues --    2.45092   2.45292   2.45911   2.46332   2.46629
 Alpha virt. eigenvalues --    2.46709   2.47361   2.47736   2.48012   2.48511
 Alpha virt. eigenvalues --    2.48934   2.49331   2.49552   2.49722   2.50756
 Alpha virt. eigenvalues --    2.50947   2.51569   2.52124   2.52728   2.53320
 Alpha virt. eigenvalues --    2.53474   2.54104   2.54226   2.54623   2.55216
 Alpha virt. eigenvalues --    2.56154   2.56385   2.56698   2.57324   2.57945
 Alpha virt. eigenvalues --    2.58428   2.58997   2.59377   2.59856   2.59960
 Alpha virt. eigenvalues --    2.60480   2.60926   2.61131   2.61440   2.62294
 Alpha virt. eigenvalues --    2.62414   2.62691   2.63192   2.63321   2.64092
 Alpha virt. eigenvalues --    2.64353   2.64428   2.65102   2.65590   2.65976
 Alpha virt. eigenvalues --    2.66679   2.66969   2.67338   2.67525   2.68222
 Alpha virt. eigenvalues --    2.68665   2.69158   2.69274   2.69487   2.70103
 Alpha virt. eigenvalues --    2.70492   2.70740   2.71024   2.71155   2.71766
 Alpha virt. eigenvalues --    2.71921   2.72334   2.72813   2.72986   2.73435
 Alpha virt. eigenvalues --    2.73641   2.73965   2.74258   2.74819   2.75307
 Alpha virt. eigenvalues --    2.75700   2.75929   2.77174   2.77181   2.78870
 Alpha virt. eigenvalues --    2.79077   2.79803   2.80406   2.80494   2.80912
 Alpha virt. eigenvalues --    2.81491   2.82045   2.82330   2.82499   2.82805
 Alpha virt. eigenvalues --    2.83207   2.83635   2.84096   2.84516   2.84803
 Alpha virt. eigenvalues --    2.85594   2.85906   2.86287   2.87124   2.87380
 Alpha virt. eigenvalues --    2.87878   2.88216   2.88695   2.88900   2.89251
 Alpha virt. eigenvalues --    2.89441   2.89515   2.89979   2.90648   2.90844
 Alpha virt. eigenvalues --    2.91238   2.91490   2.91702   2.92292   2.92746
 Alpha virt. eigenvalues --    2.93405   2.93881   2.94103   2.94979   2.95583
 Alpha virt. eigenvalues --    2.97176   2.97407   3.00632   3.01187   3.02141
 Alpha virt. eigenvalues --    3.02838   3.03831   3.04369   3.04421   3.05214
 Alpha virt. eigenvalues --    3.06778   3.08188   3.09664   3.09943   3.10319
 Alpha virt. eigenvalues --    3.10705   3.11282   3.12652   3.14488   3.15461
 Alpha virt. eigenvalues --    3.16380   3.18725   3.19295   3.19381   3.20206
 Alpha virt. eigenvalues --    3.20606   3.21251   3.22249   3.22396   3.23071
 Alpha virt. eigenvalues --    3.23127   3.24058   3.24572   3.25483   3.25906
 Alpha virt. eigenvalues --    3.26514   3.26589   3.28038   3.28137   3.30375
 Alpha virt. eigenvalues --    3.30447   3.31774   3.31793   3.32823   3.33074
 Alpha virt. eigenvalues --    3.34879   3.35426   3.37218   3.38368   3.39110
 Alpha virt. eigenvalues --    3.40820   3.41387   3.42223   3.43045   3.43321
 Alpha virt. eigenvalues --    3.45036   3.45236   3.45492   3.45651   3.45777
 Alpha virt. eigenvalues --    3.46014   3.46405   3.46896   3.47319   3.47966
 Alpha virt. eigenvalues --    3.48146   3.48748   3.49827   3.50309   3.50699
 Alpha virt. eigenvalues --    3.51920   3.52811   3.58128   3.61200   3.65022
 Alpha virt. eigenvalues --    3.69161   3.69532   3.74846   3.75409   3.77099
 Alpha virt. eigenvalues --    3.80617   3.94831   4.03725   4.05211   4.05782
 Alpha virt. eigenvalues --    4.08791   4.10243   4.16553   4.16925   4.18600
 Alpha virt. eigenvalues --    4.18946   4.20203   4.21061   4.23319   4.23708
 Alpha virt. eigenvalues --    4.25364   4.25664   4.26648   4.27100   4.27310
 Alpha virt. eigenvalues --    4.31924   4.33145   4.35146   4.36046   4.36570
 Alpha virt. eigenvalues --    4.40409   4.41045   4.42536   4.42910   4.43591
 Alpha virt. eigenvalues --    4.45221   4.47542   4.48445   4.49768   4.50964
 Alpha virt. eigenvalues --    4.52243   4.52511   4.53089   4.56307   4.57833
 Alpha virt. eigenvalues --    4.59416   4.60152   4.62319   4.63157   4.63636
 Alpha virt. eigenvalues --    4.64873   4.65634   4.73666   4.81126   4.85195
 Alpha virt. eigenvalues --    4.86588   4.87485   4.88955   4.90417   4.97855
 Alpha virt. eigenvalues --    5.01550
          Condensed to atoms (all electrons):
 Mulliken charges:
               1
     1  O   -0.484316
     2  N   -0.579620
     3  O   -0.562063
     4  O   -0.571208
     5  C   -0.345851
     6  N    0.423438
     7  C    0.204531
     8  C    0.653629
     9  C    0.022965
    10  C   -0.103378
    11  C    0.639854
    12  C   -0.108302
    13  C   -0.118543
    14  C   -0.128627
    15  C   -0.126685
    16  O   -0.401297
    17  O   -0.396335
    18  H    0.368878
    19  H    0.391288
    20  H    0.439951
    21  H    0.128574
    22  H    0.161582
    23  H    0.182704
    24  H    0.189711
    25  H    0.185246
    26  H    0.168316
    27  H    0.191519
    28  O   -0.655677
    29  O   -0.627633
    30  C   -0.407217
    31  O   -0.655953
    32  C   -0.411188
    33  C   -0.401602
    34  O   -0.712456
    35  C   -0.400793
    36  C   -0.406841
    37  C   -0.393689
    38  C   -0.211713
    39  C    0.135435
    40  C   -0.151916
    41  C   -0.199673
    42  C    0.098430
    43  C    0.128614
    44  C   -0.051767
    45  C    0.230863
    46  C   -0.142070
    47  C    0.105185
    48  C   -0.211489
    49  C    0.122333
    50  C    0.027486
    51  C   -0.150479
    52  C    0.007567
    53  C    0.225744
    54  C   -0.266773
    55  C   -0.012314
    56  C   -0.152305
    57  C   -0.048381
    58  C    0.033869
    59  C   -0.195768
    60  C   -0.143609
    61  C    0.097529
    62  C   -0.219337
    63  C    0.099396
    64  C    0.090681
    65  C   -0.210268
    66  C   -0.266372
    67  P    1.297765
    68  H    0.302811
    69  H    0.130145
    70  H    0.131434
    71  H    0.129716
    72  H    0.115647
    73  H    0.133012
    74  H    0.167963
    75  H    0.126449
    76  H    0.117177
    77  H    0.144109
    78  H    0.093126
    79  H    0.126030
    80  H    0.185709
    81  H    0.150681
    82  H    0.117737
    83  H    0.141413
    84  H    0.123102
    85  H    0.164557
    86  H    0.110507
    87  H    0.092775
    88  H    0.114895
    89  H    0.094259
    90  H    0.138006
    91  H    0.111789
    92  H    0.121926
    93  H    0.134066
    94  H    0.130731
    95  H    0.114349
    96  H    0.088322
    97  H    0.119247
    98  H    0.097745
    99  H    0.112357
   100  H    0.133279
   101  H    0.134016
   102  H    0.131343
 Sum of Mulliken charges =  -0.00000
 Mulliken charges with hydrogens summed into heavy atoms:
               1
     1  O   -0.115438
     2  N   -0.188332
     3  O   -0.562063
     4  O   -0.131257
     5  C    0.127009
     6  N    0.423438
     7  C    0.204531
     8  C    0.653629
     9  C    0.022965
    10  C    0.199433
    11  C    0.639854
    12  C    0.081409
    13  C    0.066703
    14  C    0.039689
    15  C    0.064834
    16  O   -0.401297
    17  O   -0.396335
    28  O   -0.655677
    29  O   -0.627633
    30  C   -0.015923
    31  O   -0.655953
    32  C    0.005434
    33  C   -0.013868
    34  O   -0.712456
    35  C    0.004072
    36  C    0.002990
    37  C    0.004477
    38  C   -0.118938
    39  C    0.135435
    40  C   -0.037021
    41  C   -0.105414
    42  C    0.098430
    43  C    0.128614
    44  C   -0.051767
    45  C    0.230863
    46  C   -0.142070
    47  C    0.105185
    48  C    0.038307
    49  C    0.122333
    50  C    0.027486
    51  C   -0.028553
    52  C    0.007567
    53  C    0.225744
    54  C   -0.001976
    55  C   -0.012314
    56  C   -0.037957
    57  C   -0.048381
    58  C    0.033869
    59  C   -0.107446
    60  C   -0.024361
    61  C    0.097529
    62  C   -0.121592
    63  C    0.099396
    64  C    0.090681
    65  C    0.035367
    66  C   -0.001013
    67  P    1.297765
 APT charges:
               1
     1  O   -0.982162
     2  N   -0.342892
     3  O    0.127916
     4  O    0.002129
     5  C   -1.284497
     6  N   -0.599955
     7  C    0.587902
     8  C   -0.267486
     9  C   -0.479777
    10  C   -0.164104
    11  C    0.026419
    12  C   -0.624281
    13  C   -0.479681
    14  C   -0.419173
    15  C   -0.456585
    16  O    0.560222
    17  O   -0.197954
    18  H    1.339916
    19  H    0.109457
    20  H    0.479757
    21  H    0.680440
    22  H    0.590262
    23  H    0.024157
    24  H   -0.097365
    25  H    1.290787
    26  H    0.820850
    27  H    0.301292
    28  O   -0.417247
    29  O   -0.256372
    30  C   -1.601362
    31  O   -0.439881
    32  C   -1.174423
    33  C   -1.560489
    34  O   -0.655406
    35  C   -1.124649
    36  C   -1.083708
    37  C   -0.921937
    38  C   -0.488108
    39  C   -0.260654
    40  C   -0.465065
    41  C   -0.407069
    42  C    0.409728
    43  C   -0.178501
    44  C   -0.538326
    45  C   -0.311681
    46  C   -0.043147
    47  C   -0.121754
    48  C   -1.010691
    49  C   -0.364192
    50  C    0.275091
    51  C   -0.430743
    52  C   -0.483938
    53  C   -0.399126
    54  C   -1.573863
    55  C   -0.365662
    56  C   -0.452782
    57  C   -0.483467
    58  C    0.449607
    59  C   -0.488219
    60  C   -0.440934
    61  C   -0.263279
    62  C   -0.482738
    63  C   -0.130636
    64  C    0.382690
    65  C   -0.654206
    66  C   -1.599964
    67  P    0.592061
    68  H    0.141524
    69  H    0.050626
    70  H    0.945292
    71  H    0.704403
    72  H    0.872887
    73  H    0.539136
    74  H   -0.145154
    75  H    0.286028
    76  H    0.447293
    77  H    0.915285
    78  H    0.460771
    79  H    0.742911
    80  H   -0.014183
    81  H   -0.029796
    82  H    0.642872
    83  H    0.542770
    84  H    0.701741
    85  H   -0.192683
    86  H    0.474435
    87  H    0.533117
    88  H    1.047019
    89  H    0.786674
    90  H    0.154117
    91  H    0.839320
    92  H    0.826966
    93  H    0.754921
    94  H    0.765216
    95  H    1.064344
    96  H    0.568255
    97  H    0.707217
    98  H    0.648502
    99  H    0.782735
   100  H   -0.033907
   101  H    0.591034
   102  H    0.897761
 Sum of APT charges =  -0.00000
 APT charges with hydrogens summed into heavy atoms:
               1
     1  O    0.357754
     2  N   -0.233435
     3  O    0.127916
     4  O    0.481886
     5  C    0.010362
     6  N   -0.599955
     7  C    0.587902
     8  C   -0.267486
     9  C   -0.479777
    10  C   -0.022579
    11  C    0.026419
    12  C   -0.721646
    13  C    0.811106
    14  C    0.401678
    15  C   -0.155293
    16  O    0.560222
    17  O   -0.197954
    28  O   -0.417247
    29  O   -0.256372
    30  C    0.098959
    31  O   -0.439881
    32  C    0.092446
    33  C    0.088118
    34  O   -0.655406
    35  C    0.064849
    36  C    0.072138
    37  C    0.061556
    38  C    0.045009
    39  C   -0.260654
    40  C    0.581954
    41  C    0.379605
    42  C    0.409728
    43  C   -0.178501
    44  C   -0.538326
    45  C   -0.311681
    46  C   -0.043147
    47  C   -0.121754
    48  C   -0.017255
    49  C   -0.364192
    50  C    0.275091
    51  C    0.396223
    52  C   -0.483938
    53  C   -0.399126
    54  C   -0.053726
    55  C   -0.365662
    56  C    0.611563
    57  C   -0.483467
    58  C    0.449607
    59  C    0.080037
    60  C    0.266283
    61  C   -0.263279
    62  C    0.165763
    63  C   -0.130636
    64  C    0.382690
    65  C    0.094623
    66  C   -0.111170
    67  P    0.592061
 Electronic spatial extent (au):  <R**2>=          32950.7120
 Charge=             -0.0000 electrons
 Dipole moment (field-independent basis, Debye):
    X=              0.9793    Y=              3.8149    Z=             -4.6206  Tot=              6.0715
 Quadrupole moment (field-independent basis, Debye-Ang):
   XX=           -337.4646   YY=           -311.8976   ZZ=           -334.0562
   XY=             27.2237   XZ=            -20.1058   YZ=             -8.2555
 Traceless Quadrupole moment (field-independent basis, Debye-Ang):
   XX=             -9.6584   YY=             15.9085   ZZ=             -6.2501
   XY=             27.2237   XZ=            -20.1058   YZ=             -8.2555
 Octapole moment (field-independent basis, Debye-Ang**2):
  XXX=             38.0618  YYY=             68.8737  ZZZ=           -192.8422  XYY=             -0.6664
  XXY=             24.8639  XXZ=            -89.2764  XZZ=            -77.4971  YZZ=             92.5106
  YYZ=            -72.5477  XYZ=             28.4259
 Hexadecapole moment (field-independent basis, Debye-Ang**3):
 XXXX=         -21631.4426 YYYY=         -13337.5971 ZZZZ=          -9189.1038 XXXY=            513.1658
 XXXZ=           -402.0847 YYYX=            251.3292 YYYZ=           -267.4723 ZZZX=           -680.4633
 ZZZY=           -241.0916 XXYY=          -5770.7087 XXZZ=          -5609.2151 YYZZ=          -3544.4011
 XXYZ=             40.9094 YYXZ=             35.1355 ZZXY=            336.8298
 N-N= 9.233031267616D+03 E-N=-2.515961258527D+04  KE= 2.846348881967D+03
  Exact polarizability:       0.000       0.000       0.000       0.000       0.000       0.000
 Approx polarizability:     675.550      69.271     619.183       9.252     -56.198     659.910
 Leave Link  601 at Sat Oct 29 19:08:37 2022, MaxMem=  8053063680 cpu:               7.8 elap:               0.7
 (Enter /project/chenjingdan/g16/l9999.exe)

 This type of calculation cannot be archived.


 I think that all right-thinking people in this
 country are sick and tired of being told that
 ordinary, decent people are fed up in this country
 with being sick and tired.  I'm certainly not!
 But I'm sick and tired of being told that I am!
                               -- Monty Python
 Job cpu time:       5 days 12 hours  6 minutes 56.8 seconds.
 Elapsed time:       0 days  8 hours 19 minutes 18.5 seconds.
 File lengths (MBytes):  RWF=  11522 Int=      0 D2E=      0 Chk=     99 Scr=      1
 Normal termination of Gaussian 16 at Sat Oct 29 19:08:40 2022.
